 Entering Gaussian System, Link 0=/opt/g16/g16/g16
 Initial command:
 /opt/g16/g16/l1.exe "/tmp/scratch/Gau-27267.inp" -scrdir="/tmp/scratch/"
 Entering Link 1 = /opt/g16/g16/l1.exe PID=     27268.
  
 Copyright (c) 1988,1990,1992,1993,1995,1998,2003,2009,2016,
            Gaussian, Inc.  All Rights Reserved.
  
 This is part of the Gaussian(R) 16 program.  It is based on
 the Gaussian(R) 09 system (copyright 2009, Gaussian, Inc.),
 the Gaussian(R) 03 system (copyright 2003, Gaussian, Inc.),
 the Gaussian(R) 98 system (copyright 1998, Gaussian, Inc.),
 the Gaussian(R) 94 system (copyright 1995, Gaussian, Inc.),
 the Gaussian 92(TM) system (copyright 1992, Gaussian, Inc.),
 the Gaussian 90(TM) system (copyright 1990, Gaussian, Inc.),
 the Gaussian 88(TM) system (copyright 1988, Gaussian, Inc.),
 the Gaussian 86(TM) system (copyright 1986, Carnegie Mellon
 University), and the Gaussian 82(TM) system (copyright 1983,
 Carnegie Mellon University). Gaussian is a federally registered
 trademark of Gaussian, Inc.
  
 This software contains proprietary and confidential information,
 including trade secrets, belonging to Gaussian, Inc.
  
 This software is provided under written license and may be
 used, copied, transmitted, or stored only in accord with that
 written license.
  
 The following legend is applicable only to US Government
 contracts under FAR:
  
                    RESTRICTED RIGHTS LEGEND
  
 Use, reproduction and disclosure by the US Government is
 subject to restrictions as set forth in subparagraphs (a)
 and (c) of the Commercial Computer Software - Restricted
 Rights clause in FAR 52.227-19.
  
 Gaussian, Inc.
 340 Quinnipiac St., Bldg. 40, Wallingford CT 06492
  
  
 ---------------------------------------------------------------
 Warning -- This program may not be used in any manner that
 competes with the business of Gaussian, Inc. or will provide
 assistance to any competitor of Gaussian, Inc.  The licensee
 of this program is prohibited from giving any competitor of
 Gaussian, Inc. access to this program.  By using this program,
 the user acknowledges that Gaussian, Inc. is engaged in the
 business of creating and licensing software in the field of
 computational chemistry and represents and warrants to the
 licensee that it is not a competitor of Gaussian, Inc. and that
 it will not use this program in any manner prohibited above.
 ---------------------------------------------------------------
  

 Cite this work as:
 Gaussian 16, Revision A.03,
 M. J. Frisch, G. W. Trucks, H. B. Schlegel, G. E. Scuseria, 
 M. A. Robb, J. R. Cheeseman, G. Scalmani, V. Barone, 
 G. A. Petersson, H. Nakatsuji, X. Li, M. Caricato, A. V. Marenich, 
 J. Bloino, B. G. Janesko, R. Gomperts, B. Mennucci, H. P. Hratchian, 
 J. V. Ortiz, A. F. Izmaylov, J. L. Sonnenberg, D. Williams-Young, 
 F. Ding, F. Lipparini, F. Egidi, J. Goings, B. Peng, A. Petrone, 
 T. Henderson, D. Ranasinghe, V. G. Zakrzewski, J. Gao, N. Rega, 
 G. Zheng, W. Liang, M. Hada, M. Ehara, K. Toyota, R. Fukuda, 
 J. Hasegawa, M. Ishida, T. Nakajima, Y. Honda, O. Kitao, H. Nakai, 
 T. Vreven, K. Throssell, J. A. Montgomery, Jr., J. E. Peralta, 
 F. Ogliaro, M. J. Bearpark, J. J. Heyd, E. N. Brothers, K. N. Kudin, 
 V. N. Staroverov, T. A. Keith, R. Kobayashi, J. Normand, 
 K. Raghavachari, A. P. Rendell, J. C. Burant, S. S. Iyengar, 
 J. Tomasi, M. Cossi, J. M. Millam, M. Klene, C. Adamo, R. Cammi, 
 J. W. Ochterski, R. L. Martin, K. Morokuma, O. Farkas, 
 J. B. Foresman, and D. J. Fox, Gaussian, Inc., Wallingford CT, 2016.
 
 ******************************************
 Gaussian 16:  ES64L-G16RevA.03 25-Dec-2016
                18-Jul-2020 
 ******************************************
 -------------------------------------
 #p opt rb3lyp/6-31g geom=connectivity
 -------------------------------------
 1/18=20,19=15,26=3,38=1,57=2/1,3;
 2/9=110,12=2,17=6,18=5,40=1/2;
 3/5=1,6=6,11=2,25=1,30=1,71=1,74=-5,116=1/1,2,3;
 4//1;
 5/5=2,38=5/2;
 6/7=2,8=2,9=2,10=2,28=1/1;
 7//1,2,3,16;
 1/18=20,19=15,26=3/3(2);
 2/9=110/2;
 99//99;
 2/9=110/2;
 3/5=1,6=6,11=2,25=1,30=1,71=1,74=-5,116=1/1,2,3;
 4/5=5,16=3,69=1/1;
 5/5=2,38=5/2;
 7//1,2,3,16;
 1/18=20,19=15,26=3/3(-5);
 2/9=110/2;
 6/7=2,8=2,9=2,10=2,19=2,28=1/1;
 99/9=1/99;
 Leave Link    1 at Sat Jul 18 16:38:37 2020, MaxMem=           0 cpu:               0.0 elap:               0.0
 (Enter /opt/g16/g16/l101.exe)
 -----------
 ACE+ALA+NME
 -----------
 Symbolic Z-matrix:
 Charge =  0 Multiplicity = 1
 C                    -2.58418   1.23328  -1.35293 
 H                    -2.07648   1.05266  -2.30888 
 H                    -2.20366   2.17523  -0.94265 
 H                    -3.65321   1.33413  -1.54093 
 C                    -2.38917   0.06764  -0.39861 
 O                    -3.34969  -0.64663  -0.03582 
 N                    -1.11222  -0.19014   0.03607 
 H                    -0.91788  -1.13261   0.36148 
 C                     0.02815   0.7182    0.07329 
 H                    -0.01891   1.39846  -0.78615 
 C                     0.08335   1.5473    1.38061 
 H                     0.16574   0.87432   2.23964 
 H                     0.94236   2.2282    1.38488 
 H                    -0.82971   2.13944   1.49371 
 C                     1.29562  -0.14655  -0.03785 
 O                     1.30764  -1.32617   0.38236 
 N                     2.38839   0.47015  -0.57138 
 H                     2.2991    1.41412  -0.91788 
 C                     3.68846  -0.19208  -0.68207 
 H                     3.58054  -1.19704  -0.272 
 H                     4.00366  -0.26529  -1.72837 
 H                     4.45454   0.34746  -0.11479 
 
 ITRead=  0  0  0  0  0  0  0  0  0  0  0  0  0  0  0  0  0  0  0  0
 ITRead=  0  0
 MicOpt= -1 -1 -1 -1 -1 -1 -1 -1 -1 -1 -1 -1 -1 -1 -1 -1 -1 -1 -1 -1
 MicOpt= -1 -1
 NAtoms=     22 NQM=       22 NQMF=       0 NMMI=      0 NMMIF=      0
                NMic=       0 NMicF=      0.
                    Isotopes and Nuclear Properties:
 (Nuclear quadrupole moments (NQMom) in fm**2, nuclear magnetic moments (NMagM)
  in nuclear magnetons)

  Atom         1           2           3           4           5           6           7           8           9          10
 IAtWgt=          12           1           1           1          12          16          14           1          12           1
 AtmWgt=  12.0000000   1.0078250   1.0078250   1.0078250  12.0000000  15.9949146  14.0030740   1.0078250  12.0000000   1.0078250
 NucSpn=           0           1           1           1           0           0           2           1           0           1
 AtZEff=  -0.0000000  -0.0000000  -0.0000000  -0.0000000  -0.0000000  -0.0000000  -0.0000000  -0.0000000  -0.0000000  -0.0000000
 NQMom=    0.0000000   0.0000000   0.0000000   0.0000000   0.0000000   0.0000000   2.0440000   0.0000000   0.0000000   0.0000000
 NMagM=    0.0000000   2.7928460   2.7928460   2.7928460   0.0000000   0.0000000   0.4037610   2.7928460   0.0000000   2.7928460
 AtZNuc=   6.0000000   1.0000000   1.0000000   1.0000000   6.0000000   8.0000000   7.0000000   1.0000000   6.0000000   1.0000000

  Atom        11          12          13          14          15          16          17          18          19          20
 IAtWgt=          12           1           1           1          12          16          14           1          12           1
 AtmWgt=  12.0000000   1.0078250   1.0078250   1.0078250  12.0000000  15.9949146  14.0030740   1.0078250  12.0000000   1.0078250
 NucSpn=           0           1           1           1           0           0           2           1           0           1
 AtZEff=  -0.0000000  -0.0000000  -0.0000000  -0.0000000  -0.0000000  -0.0000000  -0.0000000  -0.0000000  -0.0000000  -0.0000000
 NQMom=    0.0000000   0.0000000   0.0000000   0.0000000   0.0000000   0.0000000   2.0440000   0.0000000   0.0000000   0.0000000
 NMagM=    0.0000000   2.7928460   2.7928460   2.7928460   0.0000000   0.0000000   0.4037610   2.7928460   0.0000000   2.7928460
 AtZNuc=   6.0000000   1.0000000   1.0000000   1.0000000   6.0000000   8.0000000   7.0000000   1.0000000   6.0000000   1.0000000

  Atom        21          22
 IAtWgt=           1           1
 AtmWgt=   1.0078250   1.0078250
 NucSpn=           1           1
 AtZEff=  -0.0000000  -0.0000000
 NQMom=    0.0000000   0.0000000
 NMagM=    2.7928460   2.7928460
 AtZNuc=   1.0000000   1.0000000
 Leave Link  101 at Sat Jul 18 16:38:37 2020, MaxMem=   104857600 cpu:               0.2 elap:               0.2
 (Enter /opt/g16/g16/l103.exe)

 GradGradGradGradGradGradGradGradGradGradGradGradGradGradGradGradGradGrad
 Berny optimization.
 Initialization pass.
                           ----------------------------
                           !    Initial Parameters    !
                           ! (Angstroms and Degrees)  !
 --------------------------                            --------------------------
 ! Name  Definition              Value          Derivative Info.                !
 --------------------------------------------------------------------------------
 ! R1    R(1,2)                  1.0974         estimate D2E/DX2                !
 ! R2    R(1,3)                  1.0956         estimate D2E/DX2                !
 ! R3    R(1,4)                  1.0901         estimate D2E/DX2                !
 ! R4    R(1,5)                  1.519          estimate D2E/DX2                !
 ! R5    R(5,6)                  1.2508         estimate D2E/DX2                !
 ! R6    R(5,7)                  1.3733         estimate D2E/DX2                !
 ! R7    R(7,8)                  1.0158         estimate D2E/DX2                !
 ! R8    R(7,9)                  1.4584         estimate D2E/DX2                !
 ! R9    R(9,10)                 1.0971         estimate D2E/DX2                !
 ! R10   R(9,11)                 1.549          estimate D2E/DX2                !
 ! R11   R(9,15)                 1.5384         estimate D2E/DX2                !
 ! R12   R(11,12)                1.0944         estimate D2E/DX2                !
 ! R13   R(11,13)                1.0961         estimate D2E/DX2                !
 ! R14   R(11,14)                1.0941         estimate D2E/DX2                !
 ! R15   R(15,16)                1.2523         estimate D2E/DX2                !
 ! R16   R(15,17)                1.3635         estimate D2E/DX2                !
 ! R17   R(17,18)                1.0095         estimate D2E/DX2                !
 ! R18   R(17,19)                1.4632         estimate D2E/DX2                !
 ! R19   R(19,20)                1.0908         estimate D2E/DX2                !
 ! R20   R(19,21)                1.0952         estimate D2E/DX2                !
 ! R21   R(19,22)                1.0953         estimate D2E/DX2                !
 ! A1    A(2,1,3)              107.8802         estimate D2E/DX2                !
 ! A2    A(2,1,4)              108.5844         estimate D2E/DX2                !
 ! A3    A(2,1,5)              111.1975         estimate D2E/DX2                !
 ! A4    A(3,1,4)              109.0043         estimate D2E/DX2                !
 ! A5    A(3,1,5)              112.3261         estimate D2E/DX2                !
 ! A6    A(4,1,5)              107.7724         estimate D2E/DX2                !
 ! A7    A(1,5,6)              121.4562         estimate D2E/DX2                !
 ! A8    A(1,5,7)              117.5328         estimate D2E/DX2                !
 ! A9    A(6,5,7)              121.0017         estimate D2E/DX2                !
 ! A10   A(5,7,8)              116.9641         estimate D2E/DX2                !
 ! A11   A(5,7,9)              128.187          estimate D2E/DX2                !
 ! A12   A(8,7,9)              114.8405         estimate D2E/DX2                !
 ! A13   A(7,9,10)             109.4307         estimate D2E/DX2                !
 ! A14   A(7,9,11)             112.5053         estimate D2E/DX2                !
 ! A15   A(7,9,15)             106.9944         estimate D2E/DX2                !
 ! A16   A(10,9,11)            109.317          estimate D2E/DX2                !
 ! A17   A(10,9,15)            109.1047         estimate D2E/DX2                !
 ! A18   A(11,9,15)            109.4183         estimate D2E/DX2                !
 ! A19   A(9,11,12)            109.6346         estimate D2E/DX2                !
 ! A20   A(9,11,13)            111.3268         estimate D2E/DX2                !
 ! A21   A(9,11,14)            110.3137         estimate D2E/DX2                !
 ! A22   A(12,11,13)           108.6595         estimate D2E/DX2                !
 ! A23   A(12,11,14)           108.3306         estimate D2E/DX2                !
 ! A24   A(13,11,14)           108.5049         estimate D2E/DX2                !
 ! A25   A(9,15,16)            120.8747         estimate D2E/DX2                !
 ! A26   A(9,15,17)            115.7428         estimate D2E/DX2                !
 ! A27   A(16,15,17)           123.3438         estimate D2E/DX2                !
 ! A28   A(15,17,18)           119.1008         estimate D2E/DX2                !
 ! A29   A(15,17,19)           122.4787         estimate D2E/DX2                !
 ! A30   A(18,17,19)           118.4133         estimate D2E/DX2                !
 ! A31   A(17,19,20)           107.4959         estimate D2E/DX2                !
 ! A32   A(17,19,21)           110.9923         estimate D2E/DX2                !
 ! A33   A(17,19,22)           111.0576         estimate D2E/DX2                !
 ! A34   A(20,19,21)           109.0289         estimate D2E/DX2                !
 ! A35   A(20,19,22)           109.1672         estimate D2E/DX2                !
 ! A36   A(21,19,22)           109.0515         estimate D2E/DX2                !
 ! D1    D(2,1,5,6)           -114.1424         estimate D2E/DX2                !
 ! D2    D(2,1,5,7)             64.762          estimate D2E/DX2                !
 ! D3    D(3,1,5,6)            124.8428         estimate D2E/DX2                !
 ! D4    D(3,1,5,7)            -56.2527         estimate D2E/DX2                !
 ! D5    D(4,1,5,6)              4.7568         estimate D2E/DX2                !
 ! D6    D(4,1,5,7)           -176.3387         estimate D2E/DX2                !
 ! D7    D(1,5,7,8)           -157.117          estimate D2E/DX2                !
 ! D8    D(1,5,7,9)             21.7631         estimate D2E/DX2                !
 ! D9    D(6,5,7,8)             21.7928         estimate D2E/DX2                !
 ! D10   D(6,5,7,9)           -159.3272         estimate D2E/DX2                !
 ! D11   D(5,7,9,10)           -34.6332         estimate D2E/DX2                !
 ! D12   D(5,7,9,11)            87.0918         estimate D2E/DX2                !
 ! D13   D(5,7,9,15)          -152.7143         estimate D2E/DX2                !
 ! D14   D(8,7,9,10)           144.2668         estimate D2E/DX2                !
 ! D15   D(8,7,9,11)           -94.0082         estimate D2E/DX2                !
 ! D16   D(8,7,9,15)            26.1857         estimate D2E/DX2                !
 ! D17   D(7,9,11,12)           60.1769         estimate D2E/DX2                !
 ! D18   D(7,9,11,13)         -179.561          estimate D2E/DX2                !
 ! D19   D(7,9,11,14)          -59.0408         estimate D2E/DX2                !
 ! D20   D(10,9,11,12)        -178.0334         estimate D2E/DX2                !
 ! D21   D(10,9,11,13)         -57.7714         estimate D2E/DX2                !
 ! D22   D(10,9,11,14)          62.7489         estimate D2E/DX2                !
 ! D23   D(15,9,11,12)         -58.607          estimate D2E/DX2                !
 ! D24   D(15,9,11,13)          61.655          estimate D2E/DX2                !
 ! D25   D(15,9,11,14)        -177.8247         estimate D2E/DX2                !
 ! D26   D(7,9,15,16)          -28.6058         estimate D2E/DX2                !
 ! D27   D(7,9,15,17)          153.5806         estimate D2E/DX2                !
 ! D28   D(10,9,15,16)        -146.8996         estimate D2E/DX2                !
 ! D29   D(10,9,15,17)          35.2869         estimate D2E/DX2                !
 ! D30   D(11,9,15,16)          93.5432         estimate D2E/DX2                !
 ! D31   D(11,9,15,17)         -84.2703         estimate D2E/DX2                !
 ! D32   D(9,15,17,18)          -4.1946         estimate D2E/DX2                !
 ! D33   D(9,15,17,19)         176.795          estimate D2E/DX2                !
 ! D34   D(16,15,17,18)        178.0519         estimate D2E/DX2                !
 ! D35   D(16,15,17,19)         -0.9586         estimate D2E/DX2                !
 ! D36   D(15,17,19,20)         -0.1482         estimate D2E/DX2                !
 ! D37   D(15,17,19,21)        119.0029         estimate D2E/DX2                !
 ! D38   D(15,17,19,22)       -119.5053         estimate D2E/DX2                !
 ! D39   D(18,17,19,20)       -179.1652         estimate D2E/DX2                !
 ! D40   D(18,17,19,21)        -60.014          estimate D2E/DX2                !
 ! D41   D(18,17,19,22)         61.4777         estimate D2E/DX2                !
 --------------------------------------------------------------------------------
 Trust Radius=3.00D-01 FncErr=1.00D-07 GrdErr=1.00D-06 EigMax=2.50D+02 EigMin=1.00D-04
 Number of steps in this run=    108 maximum allowed number of steps=    132.
 GradGradGradGradGradGradGradGradGradGradGradGradGradGradGradGradGradGrad

 Leave Link  103 at Sat Jul 18 16:38:37 2020, MaxMem=   104857600 cpu:               0.0 elap:               0.0
 (Enter /opt/g16/g16/l202.exe)
                          Input orientation:                          
 ---------------------------------------------------------------------
 Center     Atomic      Atomic             Coordinates (Angstroms)
 Number     Number       Type             X           Y           Z
 ---------------------------------------------------------------------
      1          6           0       -2.584183    1.233277   -1.352929
      2          1           0       -2.076475    1.052662   -2.308878
      3          1           0       -2.203658    2.175230   -0.942648
      4          1           0       -3.653213    1.334128   -1.540931
      5          6           0       -2.389169    0.067639   -0.398608
      6          8           0       -3.349689   -0.646627   -0.035817
      7          7           0       -1.112218   -0.190143    0.036066
      8          1           0       -0.917879   -1.132606    0.361479
      9          6           0        0.028145    0.718204    0.073285
     10          1           0       -0.018913    1.398460   -0.786145
     11          6           0        0.083355    1.547295    1.380613
     12          1           0        0.165742    0.874321    2.239642
     13          1           0        0.942361    2.228202    1.384879
     14          1           0       -0.829706    2.139438    1.493708
     15          6           0        1.295624   -0.146553   -0.037849
     16          8           0        1.307640   -1.326173    0.382360
     17          7           0        2.388394    0.470154   -0.571376
     18          1           0        2.299099    1.414121   -0.917879
     19          6           0        3.688458   -0.192075   -0.682069
     20          1           0        3.580536   -1.197036   -0.272001
     21          1           0        4.003658   -0.265292   -1.728372
     22          1           0        4.454539    0.347461   -0.114794
 ---------------------------------------------------------------------
                    Distance matrix (angstroms):
                    1          2          3          4          5
     1  C    0.000000
     2  H    1.097373   0.000000
     3  H    1.095630   1.772828   0.000000
     4  H    1.090111   1.776251   1.779495   0.000000
     5  C    1.519036   2.171907   2.184567   2.122900   0.000000
     6  O    2.419674   3.110541   3.177830   2.506170   1.250757
     7  N    2.474290   2.823671   2.782824   3.356632   1.373316
     8  H    3.363505   3.639856   3.780973   4.145599   2.045242
     9  C    3.020537   3.196246   2.852366   4.066627   2.547415
    10  H    2.632325   2.582993   2.324000   3.712408   2.745793
    11  C    3.832312   4.303704   3.319981   4.747926   3.386500
    12  H    4.538447   5.074286   4.175332   5.393382   3.760142
    13  H    4.574054   4.913156   3.913774   5.520782   4.352924
    14  H    3.464485   4.146707   2.797295   4.222529   3.210161
    15  C    4.322761   4.238720   4.295849   5.379838   3.708601
    16  O    4.970744   4.934963   5.132707   5.948639   4.027284
    17  N    5.091139   4.826312   4.912441   6.179604   4.797601
    18  H    4.905957   4.605560   4.566697   5.985366   4.905355
    19  C    6.467434   6.118034   6.355240   7.547654   6.089774
    20  H    6.714059   6.419641   6.728956   7.768146   6.103508
    21  H    6.766558   6.248360   6.715972   7.824381   6.538145
    22  H    7.201476   6.925710   6.953969   8.291141   6.855304
                    6          7          8          9         10
     6  O    0.000000
     7  N    2.284693   0.000000
     8  H    2.511517   1.015824   0.000000
     9  C    3.644781   1.458392   2.098455   0.000000
    10  H    3.979879   2.096427   2.920869   1.097080   0.000000
    11  C    4.313393   2.501178   3.036935   1.549047   2.174270
    12  H    4.455250   2.760799   2.954571   2.176329   3.076395
    13  H    5.357677   3.448040   3.975282   2.199128   2.515127
    14  H    4.056097   2.762513   3.463523   2.184815   2.530645
    15  C    4.672153   2.409370   2.455882   1.538395   2.162180
    16  O    4.725184   2.695588   2.234018   2.431483   3.247888
    17  N    5.870232   3.613760   3.790844   2.459246   2.589017
    18  H    6.077296   3.888542   4.297851   2.573702   2.321805
    19  C    7.082356   4.854092   4.815800   3.846695   4.035497
    20  H    6.956059   4.809436   4.543257   4.050537   4.467324
    21  H    7.555254   5.412122   5.416754   4.474140   4.453868
    22  H    7.867682   5.594690   5.592880   4.445873   4.644038
                   11         12         13         14         15
    11  C    0.000000
    12  H    1.094355   0.000000
    13  H    1.096149   1.779536   0.000000
    14  H    1.094123   1.774220   1.777623   0.000000
    15  C    2.520070   2.739668   2.790773   3.476845   0.000000
    16  O    3.279055   3.097676   3.711072   4.220640   1.252287
    17  N    3.206821   3.606294   3.001446   4.172200   1.363498
    18  H    3.195360   3.848706   2.793951   4.016374   2.053563
    19  C    4.502981   4.699268   4.203697   5.530260   2.478456
    20  H    4.742654   4.718017   4.630062   5.805172   2.525701
    21  H    5.321657   5.636794   5.028060   6.286965   3.194591
    22  H    4.773164   4.920846   4.256948   5.807040   3.198236
                   16         17         18         19         20
    16  O    0.000000
    17  N    2.303136   0.000000
    18  H    3.191054   1.009511   0.000000
    19  C    2.843850   1.463204   2.136772   0.000000
    20  H    2.368739   2.071316   2.979493   1.090756   0.000000
    21  H    3.584574   2.118631   2.526430   1.095199   1.779942
    22  H    3.598776   2.119546   2.535475   1.095345   1.781591
                   21         22
    21  H    0.000000
    22  H    1.783927   0.000000
 Stoichiometry    C6H12N2O2
 Framework group  C1[X(C6H12N2O2)]
 Deg. of freedom    60
 Full point group                 C1      NOp   1
 Largest Abelian subgroup         C1      NOp   1
 Largest concise Abelian subgroup C1      NOp   1
                         Standard orientation:                         
 ---------------------------------------------------------------------
 Center     Atomic      Atomic             Coordinates (Angstroms)
 Number     Number       Type             X           Y           Z
 ---------------------------------------------------------------------
      1          6           0       -2.667376    0.828282   -1.169896
      2          1           0       -2.173784    0.662594   -2.135889
      3          1           0       -2.341049    1.801981   -0.788024
      4          1           0       -3.745341    0.853017   -1.330274
      5          6           0       -2.368780   -0.301652   -0.199555
      6          8           0       -3.268779   -1.071346    0.202894
      7          7           0       -1.066336   -0.463840    0.204587
      8          1           0       -0.800026   -1.384166    0.542192
      9          6           0        0.010330    0.519812    0.193328
     10          1           0       -0.105275    1.177489   -0.677120
     11          6           0        0.043351    1.377519    1.482822
     12          1           0        0.193686    0.729476    2.351760
     13          1           0        0.853979    2.114669    1.450647
     14          1           0       -0.904519    1.909037    1.609845
     15          6           0        1.330233   -0.259737    0.063638
     16          8           0        1.433280   -1.426954    0.505463
     17          7           0        2.364282    0.418026   -0.511257
     18          1           0        2.202084    1.346491   -0.872859
     19          6           0        3.702950   -0.157295   -0.645210
     20          1           0        3.674257   -1.158572   -0.213505
     21          1           0        3.994889   -0.230679   -1.698229
     22          1           0        4.445235    0.444187   -0.109474
 ---------------------------------------------------------------------
 Rotational constants (GHZ):           2.6356631           0.6340893           0.6090199
 Leave Link  202 at Sat Jul 18 16:38:37 2020, MaxMem=   104857600 cpu:               0.0 elap:               0.0
 (Enter /opt/g16/g16/l301.exe)
 Standard basis: 6-31G (6D, 7F)
 Ernie: Thresh=  0.10000D-02 Tol=  0.10000D-05 Strict=F.
 There are   114 symmetry adapted cartesian basis functions of A   symmetry.
 There are   114 symmetry adapted basis functions of A   symmetry.
   114 basis functions,   268 primitive gaussians,   114 cartesian basis functions
    39 alpha electrons       39 beta electrons
       nuclear repulsion energy       544.9485640247 Hartrees.
 IExCor=  402 DFT=T Ex+Corr=B3LYP ExCW=0 ScaHFX=  0.200000
 ScaDFX=  0.800000  0.720000  1.000000  0.810000 ScalE2=  1.000000  1.000000
 IRadAn=      5 IRanWt=     -1 IRanGd=            0 ICorTp=0 IEmpDi=  4
 NAtoms=   22 NActive=   22 NUniq=   22 SFac= 1.00D+00 NAtFMM=   60 NAOKFM=F Big=F
 Integral buffers will be    131072 words long.
 Raffenetti 2 integral format.
 Two-electron integral symmetry is turned on.
 Leave Link  301 at Sat Jul 18 16:38:37 2020, MaxMem=   104857600 cpu:               0.1 elap:               0.1
 (Enter /opt/g16/g16/l302.exe)
 NPDir=0 NMtPBC=     1 NCelOv=     1 NCel=       1 NClECP=     1 NCelD=      1
         NCelK=      1 NCelE2=     1 NClLst=     1 CellRange=     0.0.
 One-electron integrals computed using PRISM.
 One-electron integral symmetry used in STVInt
 NBasis=   114 RedAO= T EigKep=  3.90D-03  NBF=   114
 NBsUse=   114 1.00D-06 EigRej= -1.00D+00 NBFU=   114
 Precomputing XC quadrature grid using
 IXCGrd= 4 IRadAn=           5 IRanWt=          -1 IRanGd=           0 AccXCQ= 0.00D+00.
 Generated NRdTot=       0 NPtTot=           0 NUsed=           0 NTot=          32
 NSgBfM=   114   114   114   114   114 MxSgAt=    22 MxSgA2=    22.
 Leave Link  302 at Sat Jul 18 16:38:38 2020, MaxMem=   104857600 cpu:               0.9 elap:               0.9
 (Enter /opt/g16/g16/l303.exe)
 DipDrv:  MaxL=1.
 Leave Link  303 at Sat Jul 18 16:38:38 2020, MaxMem=   104857600 cpu:               0.0 elap:               0.0
 (Enter /opt/g16/g16/l401.exe)
 ExpMin= 1.61D-01 ExpMax= 5.48D+03 ExpMxC= 8.25D+02 IAcc=3 IRadAn=         5 AccDes= 0.00D+00
 Harris functional with IExCor=  402 and IRadAn=       5 diagonalized for initial guess.
 HarFok:  IExCor=  402 AccDes= 0.00D+00 IRadAn=         5 IDoV= 1 UseB2=F ITyADJ=14
 ICtDFT=  3500011 ScaDFX=  1.000000  1.000000  1.000000  1.000000
 FoFCou: FMM=F IPFlag=           0 FMFlag=      100000 FMFlg1=           0
         NFxFlg=           0 DoJE=T BraDBF=F KetDBF=T FulRan=T
         wScrn=  0.000000 ICntrl=       500 IOpCl=  0 I1Cent=   200000004 NGrid=           0
         NMat0=    1 NMatS0=      1 NMatT0=    0 NMatD0=    1 NMtDS0=    0 NMtDT0=    0
 Petite list used in FoFCou.
 Harris En= -495.743855798562    
 JPrj=0 DoOrth=F DoCkMO=F.
 Leave Link  401 at Sat Jul 18 16:38:44 2020, MaxMem=   104857600 cpu:               5.8 elap:               5.8
 (Enter /opt/g16/g16/l502.exe)
 Keep R1 ints in memory in canonical form, NReq=22427569.
 FoFCou: FMM=F IPFlag=           0 FMFlag=           0 FMFlg1=           0
         NFxFlg=           0 DoJE=F BraDBF=F KetDBF=F FulRan=T
         wScrn=  0.000000 ICntrl=       600 IOpCl=  0 I1Cent=           0 NGrid=           0
         NMat0=    1 NMatS0=   6555 NMatT0=    0 NMatD0=    1 NMtDS0=    0 NMtDT0=    0
 Symmetry not used in FoFCou.
 Two-electron integral symmetry not used.
 Closed shell SCF:
 Using DIIS extrapolation, IDIIS=  1040.
 NGot=   104857600 LenX=    83341928 LenY=    83328491
 Requested convergence on RMS density matrix=1.00D-08 within 128 cycles.
 Requested convergence on MAX density matrix=1.00D-06.
 Requested convergence on             energy=1.00D-06.
 No special actions if energy rises.
 Integral accuracy reduced to 1.0D-05 until final iterations.

 Cycle   1  Pass 0  IDiag  1:
 E= -495.355896607226    
 DIIS: error= 4.49D-02 at cycle   1 NSaved=   1.
 NSaved= 1 IEnMin= 1 EnMin= -495.355896607226     IErMin= 1 ErrMin= 4.49D-02
 ErrMax= 4.49D-02  0.00D+00 EMaxC= 1.00D-01 BMatC= 3.61D-01 BMatP= 3.61D-01
 IDIUse=3 WtCom= 5.51D-01 WtEn= 4.49D-01
 Coeff-Com:  0.100D+01
 Coeff-En:   0.100D+01
 Coeff:      0.100D+01
 Gap=     0.223 Goal=   None    Shift=    0.000
 GapD=    0.223 DampG=1.000 DampE=0.500 DampFc=0.5000 IDamp=-1.
 Damping current iteration by 5.00D-01
 RMSDP=1.93D-02 MaxDP=4.53D-01              OVMax= 3.63D-01

 Cycle   2  Pass 0  IDiag  1:
 E= -495.389426402366     Delta-E=       -0.033529795140 Rises=F Damp=T
 DIIS: error= 3.08D-02 at cycle   2 NSaved=   2.
 NSaved= 2 IEnMin= 2 EnMin= -495.389426402366     IErMin= 2 ErrMin= 3.08D-02
 ErrMax= 3.08D-02  0.00D+00 EMaxC= 1.00D-01 BMatC= 9.86D-02 BMatP= 3.61D-01
 IDIUse=3 WtCom= 6.92D-01 WtEn= 3.08D-01
 Coeff-Com:  0.308D+00 0.692D+00
 Coeff-En:   0.457D+00 0.543D+00
 Coeff:      0.354D+00 0.646D+00
 Gap=     0.285 Goal=   None    Shift=    0.000
 RMSDP=6.26D-03 MaxDP=1.39D-01 DE=-3.35D-02 OVMax= 2.34D-01

 Cycle   3  Pass 0  IDiag  1:
 E= -495.631181853644     Delta-E=       -0.241755451278 Rises=F Damp=F
 DIIS: error= 1.96D-02 at cycle   3 NSaved=   3.
 NSaved= 3 IEnMin= 3 EnMin= -495.631181853644     IErMin= 3 ErrMin= 1.96D-02
 ErrMax= 1.96D-02  0.00D+00 EMaxC= 1.00D-01 BMatC= 6.52D-02 BMatP= 9.86D-02
 IDIUse=3 WtCom= 8.04D-01 WtEn= 1.96D-01
 Coeff-Com:  0.154D+00 0.429D+00 0.418D+00
 Coeff-En:   0.000D+00 0.000D+00 0.100D+01
 Coeff:      0.124D+00 0.345D+00 0.532D+00
 Gap=     0.247 Goal=   None    Shift=    0.000
 RMSDP=3.40D-03 MaxDP=4.77D-02 DE=-2.42D-01 OVMax= 9.69D-02

 Cycle   4  Pass 0  IDiag  1:
 E= -495.681469985702     Delta-E=       -0.050288132058 Rises=F Damp=F
 DIIS: error= 1.05D-02 at cycle   4 NSaved=   4.
 NSaved= 4 IEnMin= 4 EnMin= -495.681469985702     IErMin= 4 ErrMin= 1.05D-02
 ErrMax= 1.05D-02  0.00D+00 EMaxC= 1.00D-01 BMatC= 1.47D-02 BMatP= 6.52D-02
 IDIUse=3 WtCom= 8.95D-01 WtEn= 1.05D-01
 Coeff-Com:  0.489D-01 0.630D-01 0.318D+00 0.570D+00
 Coeff-En:   0.000D+00 0.000D+00 0.198D+00 0.802D+00
 Coeff:      0.438D-01 0.564D-01 0.305D+00 0.595D+00
 Gap=     0.238 Goal=   None    Shift=    0.000
 RMSDP=1.24D-03 MaxDP=2.34D-02 DE=-5.03D-02 OVMax= 3.74D-02

 Cycle   5  Pass 0  IDiag  1:
 E= -495.693676059010     Delta-E=       -0.012206073308 Rises=F Damp=F
 DIIS: error= 1.69D-03 at cycle   5 NSaved=   5.
 NSaved= 5 IEnMin= 5 EnMin= -495.693676059010     IErMin= 5 ErrMin= 1.69D-03
 ErrMax= 1.69D-03  0.00D+00 EMaxC= 1.00D-01 BMatC= 4.76D-04 BMatP= 1.47D-02
 IDIUse=3 WtCom= 9.83D-01 WtEn= 1.69D-02
 Coeff-Com:  0.990D-02-0.561D-02 0.127D+00 0.332D+00 0.537D+00
 Coeff-En:   0.000D+00 0.000D+00 0.000D+00 0.000D+00 0.100D+01
 Coeff:      0.973D-02-0.552D-02 0.124D+00 0.326D+00 0.545D+00
 Gap=     0.236 Goal=   None    Shift=    0.000
 RMSDP=2.00D-04 MaxDP=4.47D-03 DE=-1.22D-02 OVMax= 7.03D-03

 Cycle   6  Pass 0  IDiag  1:
 E= -495.694093809671     Delta-E=       -0.000417750661 Rises=F Damp=F
 DIIS: error= 3.60D-04 at cycle   6 NSaved=   6.
 NSaved= 6 IEnMin= 6 EnMin= -495.694093809671     IErMin= 6 ErrMin= 3.60D-04
 ErrMax= 3.60D-04  0.00D+00 EMaxC= 1.00D-01 BMatC= 2.27D-05 BMatP= 4.76D-04
 IDIUse=3 WtCom= 9.96D-01 WtEn= 3.60D-03
 Coeff-Com:  0.221D-02-0.698D-02 0.350D-01 0.960D-01 0.241D+00 0.633D+00
 Coeff-En:   0.000D+00 0.000D+00 0.000D+00 0.000D+00 0.000D+00 0.100D+01
 Coeff:      0.220D-02-0.695D-02 0.349D-01 0.957D-01 0.240D+00 0.634D+00
 Gap=     0.236 Goal=   None    Shift=    0.000
 RMSDP=4.50D-05 MaxDP=8.64D-04 DE=-4.18D-04 OVMax= 8.53D-04

 Cycle   7  Pass 0  IDiag  1:
 E= -495.694112882295     Delta-E=       -0.000019072624 Rises=F Damp=F
 DIIS: error= 1.03D-04 at cycle   7 NSaved=   7.
 NSaved= 7 IEnMin= 7 EnMin= -495.694112882295     IErMin= 7 ErrMin= 1.03D-04
 ErrMax= 1.03D-04  0.00D+00 EMaxC= 1.00D-01 BMatC= 1.46D-06 BMatP= 2.27D-05
 IDIUse=3 WtCom= 9.99D-01 WtEn= 1.03D-03
 Coeff-Com:  0.510D-03-0.228D-02 0.439D-02 0.925D-02 0.573D-01 0.275D+00
 Coeff-Com:  0.656D+00
 Coeff-En:   0.000D+00 0.000D+00 0.000D+00 0.000D+00 0.000D+00 0.000D+00
 Coeff-En:   0.100D+01
 Coeff:      0.509D-03-0.228D-02 0.438D-02 0.925D-02 0.573D-01 0.275D+00
 Coeff:      0.656D+00
 Gap=     0.237 Goal=   None    Shift=    0.000
 RMSDP=1.73D-05 MaxDP=3.07D-04 DE=-1.91D-05 OVMax= 3.21D-04

 Cycle   8  Pass 0  IDiag  1:
 E= -495.694114235988     Delta-E=       -0.000001353693 Rises=F Damp=F
 DIIS: error= 2.79D-05 at cycle   8 NSaved=   8.
 NSaved= 8 IEnMin= 8 EnMin= -495.694114235988     IErMin= 8 ErrMin= 2.79D-05
 ErrMax= 2.79D-05  0.00D+00 EMaxC= 1.00D-01 BMatC= 8.68D-08 BMatP= 1.46D-06
 IDIUse=1 WtCom= 1.00D+00 WtEn= 0.00D+00
 Coeff-Com:  0.229D-03-0.969D-03 0.128D-02 0.166D-02 0.225D-01 0.120D+00
 Coeff-Com:  0.341D+00 0.514D+00
 Coeff:      0.229D-03-0.969D-03 0.128D-02 0.166D-02 0.225D-01 0.120D+00
 Coeff:      0.341D+00 0.514D+00
 Gap=     0.237 Goal=   None    Shift=    0.000
 RMSDP=3.76D-06 MaxDP=7.70D-05 DE=-1.35D-06 OVMax= 1.09D-04

 Initial convergence to 1.0D-05 achieved.  Increase integral accuracy.
 Cycle   9  Pass 1  IDiag  1:
 E= -495.694134352052     Delta-E=       -0.000020116064 Rises=F Damp=F
 DIIS: error= 1.50D-05 at cycle   1 NSaved=   1.
 NSaved= 1 IEnMin= 1 EnMin= -495.694134352052     IErMin= 1 ErrMin= 1.50D-05
 ErrMax= 1.50D-05  0.00D+00 EMaxC= 1.00D-01 BMatC= 3.08D-08 BMatP= 3.08D-08
 IDIUse=1 WtCom= 1.00D+00 WtEn= 0.00D+00
 Coeff-Com:  0.100D+01
 Coeff:      0.100D+01
 Gap=     0.237 Goal=   None    Shift=    0.000
 RMSDP=3.76D-06 MaxDP=7.70D-05 DE=-2.01D-05 OVMax= 1.59D-04

 Cycle  10  Pass 1  IDiag  1:
 E= -495.694134248974     Delta-E=        0.000000103078 Rises=F Damp=F
 DIIS: error= 3.75D-05 at cycle   2 NSaved=   2.
 NSaved= 2 IEnMin= 1 EnMin= -495.694134352052     IErMin= 1 ErrMin= 1.50D-05
 ErrMax= 3.75D-05  0.00D+00 EMaxC= 1.00D-01 BMatC= 1.59D-07 BMatP= 3.08D-08
 IDIUse=1 WtCom= 1.00D+00 WtEn= 0.00D+00
 Coeff-Com:  0.700D+00 0.300D+00
 Coeff:      0.700D+00 0.300D+00
 Gap=     0.237 Goal=   None    Shift=    0.000
 RMSDP=3.96D-06 MaxDP=9.60D-05 DE= 1.03D-07 OVMax= 1.20D-04

 Cycle  11  Pass 1  IDiag  1:
 E= -495.694134380884     Delta-E=       -0.000000131910 Rises=F Damp=F
 DIIS: error= 2.10D-06 at cycle   3 NSaved=   3.
 NSaved= 3 IEnMin= 3 EnMin= -495.694134380884     IErMin= 3 ErrMin= 2.10D-06
 ErrMax= 2.10D-06  0.00D+00 EMaxC= 1.00D-01 BMatC= 5.57D-10 BMatP= 3.08D-08
 IDIUse=1 WtCom= 1.00D+00 WtEn= 0.00D+00
 Coeff-Com:  0.168D+00 0.928D-01 0.739D+00
 Coeff:      0.168D+00 0.928D-01 0.739D+00
 Gap=     0.237 Goal=   None    Shift=    0.000
 RMSDP=4.54D-07 MaxDP=9.61D-06 DE=-1.32D-07 OVMax= 9.73D-06

 Cycle  12  Pass 1  IDiag  1:
 E= -495.694134381134     Delta-E=       -0.000000000250 Rises=F Damp=F
 DIIS: error= 1.36D-06 at cycle   4 NSaved=   4.
 NSaved= 4 IEnMin= 4 EnMin= -495.694134381134     IErMin= 4 ErrMin= 1.36D-06
 ErrMax= 1.36D-06  0.00D+00 EMaxC= 1.00D-01 BMatC= 2.90D-10 BMatP= 5.57D-10
 IDIUse=1 WtCom= 1.00D+00 WtEn= 0.00D+00
 Coeff-Com: -0.741D-02 0.107D-01 0.447D+00 0.549D+00
 Coeff:     -0.741D-02 0.107D-01 0.447D+00 0.549D+00
 Gap=     0.237 Goal=   None    Shift=    0.000
 RMSDP=1.68D-07 MaxDP=3.37D-06 DE=-2.50D-10 OVMax= 4.41D-06

 Cycle  13  Pass 1  IDiag  1:
 E= -495.694134381386     Delta-E=       -0.000000000253 Rises=F Damp=F
 DIIS: error= 2.88D-07 at cycle   5 NSaved=   5.
 NSaved= 5 IEnMin= 5 EnMin= -495.694134381386     IErMin= 5 ErrMin= 2.88D-07
 ErrMax= 2.88D-07  0.00D+00 EMaxC= 1.00D-01 BMatC= 1.57D-11 BMatP= 2.90D-10
 IDIUse=1 WtCom= 1.00D+00 WtEn= 0.00D+00
 Coeff-Com: -0.123D-01 0.215D-02 0.224D+00 0.309D+00 0.477D+00
 Coeff:     -0.123D-01 0.215D-02 0.224D+00 0.309D+00 0.477D+00
 Gap=     0.237 Goal=   None    Shift=    0.000
 RMSDP=4.35D-08 MaxDP=6.77D-07 DE=-2.53D-10 OVMax= 9.63D-07

 Cycle  14  Pass 1  IDiag  1:
 E= -495.694134381398     Delta-E=       -0.000000000012 Rises=F Damp=F
 DIIS: error= 1.92D-07 at cycle   6 NSaved=   6.
 NSaved= 6 IEnMin= 6 EnMin= -495.694134381398     IErMin= 6 ErrMin= 1.92D-07
 ErrMax= 1.92D-07  0.00D+00 EMaxC= 1.00D-01 BMatC= 2.21D-12 BMatP= 1.57D-11
 IDIUse=1 WtCom= 1.00D+00 WtEn= 0.00D+00
 Coeff-Com: -0.692D-02 0.930D-03 0.112D+00 0.158D+00 0.320D+00 0.415D+00
 Coeff:     -0.692D-02 0.930D-03 0.112D+00 0.158D+00 0.320D+00 0.415D+00
 Gap=     0.237 Goal=   None    Shift=    0.000
 RMSDP=1.84D-08 MaxDP=3.62D-07 DE=-1.18D-11 OVMax= 5.42D-07

 Cycle  15  Pass 1  IDiag  1:
 E= -495.694134381396     Delta-E=        0.000000000002 Rises=F Damp=F
 DIIS: error= 3.80D-08 at cycle   7 NSaved=   7.
 NSaved= 7 IEnMin= 6 EnMin= -495.694134381398     IErMin= 7 ErrMin= 3.80D-08
 ErrMax= 3.80D-08  0.00D+00 EMaxC= 1.00D-01 BMatC= 1.66D-13 BMatP= 2.21D-12
 IDIUse=1 WtCom= 1.00D+00 WtEn= 0.00D+00
 Coeff-Com: -0.167D-02 0.721D-04 0.188D-01 0.266D-01 0.911D-01 0.245D+00
 Coeff-Com:  0.620D+00
 Coeff:     -0.167D-02 0.721D-04 0.188D-01 0.266D-01 0.911D-01 0.245D+00
 Coeff:      0.620D+00
 Gap=     0.237 Goal=   None    Shift=    0.000
 RMSDP=3.99D-09 MaxDP=7.30D-08 DE= 2.27D-12 OVMax= 7.43D-08

 SCF Done:  E(RB3LYP) =  -495.694134381     A.U. after   15 cycles
            NFock= 15  Conv=0.40D-08     -V/T= 2.0057
 KE= 4.928773252293D+02 PE=-2.246638257100D+03 EE= 7.131182334642D+02
 Leave Link  502 at Sat Jul 18 16:39:44 2020, MaxMem=   104857600 cpu:              60.6 elap:              60.6
 (Enter /opt/g16/g16/l601.exe)
 Copying SCF densities to generalized density rwf, IOpCl= 0 IROHF=0.

 **********************************************************************

            Population analysis using the SCF density.

 **********************************************************************

 Orbital symmetries:
       Occupied  (A) (A) (A) (A) (A) (A) (A) (A) (A) (A) (A) (A)
                 (A) (A) (A) (A) (A) (A) (A) (A) (A) (A) (A) (A)
                 (A) (A) (A) (A) (A) (A) (A) (A) (A) (A) (A) (A)
                 (A) (A) (A)
       Virtual   (A) (A) (A) (A) (A) (A) (A) (A) (A) (A) (A) (A)
                 (A) (A) (A) (A) (A) (A) (A) (A) (A) (A) (A) (A)
                 (A) (A) (A) (A) (A) (A) (A) (A) (A) (A) (A) (A)
                 (A) (A) (A) (A) (A) (A) (A) (A) (A) (A) (A) (A)
                 (A) (A) (A) (A) (A) (A) (A) (A) (A) (A) (A) (A)
                 (A) (A) (A) (A) (A) (A) (A) (A) (A) (A) (A) (A)
                 (A) (A) (A)
 The electronic state is 1-A.
 Alpha  occ. eigenvalues --  -19.13115 -19.10260 -14.38199 -14.34536 -10.30955
 Alpha  occ. eigenvalues --  -10.28824 -10.25432 -10.22840 -10.19389 -10.18609
 Alpha  occ. eigenvalues --   -1.05901  -1.02822  -0.94466  -0.92308  -0.78717
 Alpha  occ. eigenvalues --   -0.74087  -0.72796  -0.66503  -0.61145  -0.58285
 Alpha  occ. eigenvalues --   -0.54479  -0.49965  -0.47710  -0.47136  -0.45939
 Alpha  occ. eigenvalues --   -0.45024  -0.43733  -0.42416  -0.41046  -0.40576
 Alpha  occ. eigenvalues --   -0.40125  -0.38402  -0.37837  -0.37312  -0.34676
 Alpha  occ. eigenvalues --   -0.27071  -0.27018  -0.24309  -0.23538
 Alpha virt. eigenvalues --    0.00120   0.01837   0.04912   0.08723   0.10726
 Alpha virt. eigenvalues --    0.11361   0.12924   0.14082   0.15103   0.15686
 Alpha virt. eigenvalues --    0.15918   0.16255   0.16631   0.18192   0.19303
 Alpha virt. eigenvalues --    0.19811   0.21364   0.23999   0.25461   0.32622
 Alpha virt. eigenvalues --    0.33856   0.36778   0.39859   0.50014   0.51533
 Alpha virt. eigenvalues --    0.52836   0.53487   0.54484   0.55955   0.57726
 Alpha virt. eigenvalues --    0.59240   0.61172   0.61831   0.65199   0.66475
 Alpha virt. eigenvalues --    0.68959   0.69280   0.71374   0.72467   0.76039
 Alpha virt. eigenvalues --    0.77098   0.77897   0.78664   0.83757   0.86630
 Alpha virt. eigenvalues --    0.88814   0.88888   0.90784   0.92198   0.92483
 Alpha virt. eigenvalues --    0.93977   0.94491   0.95071   0.96092   0.97043
 Alpha virt. eigenvalues --    0.97389   0.99087   1.01479   1.02770   1.05336
 Alpha virt. eigenvalues --    1.06282   1.10686   1.14309   1.17137   1.20111
 Alpha virt. eigenvalues --    1.23802   1.28770   1.34768   1.46079   1.50108
 Alpha virt. eigenvalues --    1.58861   1.64029   1.68328   1.90006   1.99710
          Condensed to atoms (all electrons):
               1          2          3          4          5          6
     1  C    5.484485   0.348220   0.338626   0.349097   0.236900  -0.108137
     2  H    0.348220   0.558811  -0.029995  -0.022179  -0.021737   0.001376
     3  H    0.338626  -0.029995   0.578989  -0.022837  -0.020331   0.002136
     4  H    0.349097  -0.022179  -0.022837   0.522402  -0.019853   0.006630
     5  C    0.236900  -0.021737  -0.020331  -0.019853   4.684200   0.598471
     6  O   -0.108137   0.001376   0.002136   0.006630   0.598471   8.071626
     7  N   -0.180749   0.003871   0.003491   0.006359   0.062661  -0.126297
     8  H    0.006209  -0.000225  -0.000146  -0.000110  -0.009807   0.003526
     9  C    0.004854  -0.001899  -0.000263   0.000097  -0.000717   0.002660
    10  H    0.004134   0.001718   0.000031  -0.000079  -0.006552  -0.000050
    11  C   -0.001842   0.000107   0.000127   0.000013   0.000508   0.000158
    12  H    0.000016  -0.000001  -0.000037   0.000001  -0.000427  -0.000015
    13  H    0.000045  -0.000001  -0.000050  -0.000001  -0.000026  -0.000002
    14  H   -0.000089  -0.000007   0.001738  -0.000023   0.001672  -0.000094
    15  C   -0.000472  -0.000031   0.000246   0.000001   0.001632  -0.000115
    16  O   -0.000016   0.000000  -0.000001   0.000000   0.000341  -0.000000
    17  N   -0.000028   0.000001  -0.000002   0.000000  -0.000038   0.000000
    18  H    0.000003  -0.000005  -0.000002  -0.000000  -0.000003  -0.000000
    19  C    0.000000   0.000000   0.000000   0.000000  -0.000001  -0.000000
    20  H    0.000000   0.000000   0.000000  -0.000000  -0.000000  -0.000000
    21  H    0.000000  -0.000000  -0.000000   0.000000  -0.000000   0.000000
    22  H   -0.000000   0.000000   0.000000  -0.000000  -0.000000   0.000000
               7          8          9         10         11         12
     1  C   -0.180749   0.006209   0.004854   0.004134  -0.001842   0.000016
     2  H    0.003871  -0.000225  -0.001899   0.001718   0.000107  -0.000001
     3  H    0.003491  -0.000146  -0.000263   0.000031   0.000127  -0.000037
     4  H    0.006359  -0.000110   0.000097  -0.000079   0.000013   0.000001
     5  C    0.062661  -0.009807  -0.000717  -0.006552   0.000508  -0.000427
     6  O   -0.126297   0.003526   0.002660  -0.000050   0.000158  -0.000015
     7  N    7.543176   0.291278   0.183803  -0.050601  -0.081487  -0.000546
     8  H    0.291278   0.369991  -0.049511   0.004320   0.001156   0.001367
     9  C    0.183803  -0.049511   5.362419   0.364572   0.311216  -0.035531
    10  H   -0.050601   0.004320   0.364572   0.616718  -0.052894   0.005405
    11  C   -0.081487   0.001156   0.311216  -0.052894   5.168712   0.374215
    12  H   -0.000546   0.001367  -0.035531   0.005405   0.374215   0.541893
    13  H    0.005922  -0.000002  -0.031404  -0.000244   0.344524  -0.027551
    14  H   -0.001619  -0.000252  -0.029605  -0.004072   0.370331  -0.027078
    15  C   -0.034349   0.001467   0.194589  -0.033078  -0.057836  -0.003564
    16  O   -0.008742   0.027964  -0.108692   0.002647  -0.001496   0.002723
    17  N    0.003347   0.001722  -0.151217   0.003537   0.002941   0.000023
    18  H    0.000019  -0.000042   0.001115   0.003235  -0.000190   0.000001
    19  C   -0.000124   0.000007   0.004727   0.000078  -0.000359   0.000020
    20  H    0.000001  -0.000025   0.001384  -0.000041  -0.000044  -0.000009
    21  H    0.000005   0.000001  -0.000134  -0.000011  -0.000006  -0.000000
    22  H   -0.000000  -0.000000  -0.000126  -0.000005   0.000050  -0.000000
              13         14         15         16         17         18
     1  C    0.000045  -0.000089  -0.000472  -0.000016  -0.000028   0.000003
     2  H   -0.000001  -0.000007  -0.000031   0.000000   0.000001  -0.000005
     3  H   -0.000050   0.001738   0.000246  -0.000001  -0.000002  -0.000002
     4  H   -0.000001  -0.000023   0.000001   0.000000   0.000000  -0.000000
     5  C   -0.000026   0.001672   0.001632   0.000341  -0.000038  -0.000003
     6  O   -0.000002  -0.000094  -0.000115  -0.000000   0.000000  -0.000000
     7  N    0.005922  -0.001619  -0.034349  -0.008742   0.003347   0.000019
     8  H   -0.000002  -0.000252   0.001467   0.027964   0.001722  -0.000042
     9  C   -0.031404  -0.029605   0.194589  -0.108692  -0.151217   0.001115
    10  H   -0.000244  -0.004072  -0.033078   0.002647   0.003537   0.003235
    11  C    0.344524   0.370331  -0.057836  -0.001496   0.002941  -0.000190
    12  H   -0.027551  -0.027078  -0.003564   0.002723   0.000023   0.000001
    13  H    0.605029  -0.028906  -0.000952  -0.000080   0.003412   0.000834
    14  H   -0.028906   0.558517   0.004321  -0.000069  -0.000045  -0.000033
    15  C   -0.000952   0.004321   4.779961   0.571841   0.071176  -0.011954
    16  O   -0.000080  -0.000069   0.571841   8.103223  -0.126131   0.002882
    17  N    0.003412  -0.000045   0.071176  -0.126131   7.447452   0.304681
    18  H    0.000834  -0.000033  -0.011954   0.002882   0.304681   0.408204
    19  C   -0.000043   0.000005  -0.033209  -0.007950   0.207943  -0.028043
    20  H   -0.000000   0.000001   0.002388   0.017865  -0.043950   0.003480
    21  H    0.000003   0.000000   0.001434   0.000448  -0.044487  -0.001253
    22  H   -0.000021  -0.000001   0.002625   0.000449  -0.045577  -0.001268
              19         20         21         22
     1  C    0.000000   0.000000   0.000000  -0.000000
     2  H    0.000000   0.000000  -0.000000   0.000000
     3  H    0.000000   0.000000  -0.000000   0.000000
     4  H    0.000000  -0.000000   0.000000  -0.000000
     5  C   -0.000001  -0.000000  -0.000000  -0.000000
     6  O   -0.000000  -0.000000   0.000000   0.000000
     7  N   -0.000124   0.000001   0.000005  -0.000000
     8  H    0.000007  -0.000025   0.000001  -0.000000
     9  C    0.004727   0.001384  -0.000134  -0.000126
    10  H    0.000078  -0.000041  -0.000011  -0.000005
    11  C   -0.000359  -0.000044  -0.000006   0.000050
    12  H    0.000020  -0.000009  -0.000000  -0.000000
    13  H   -0.000043  -0.000000   0.000003  -0.000021
    14  H    0.000005   0.000001   0.000000  -0.000001
    15  C   -0.033209   0.002388   0.001434   0.002625
    16  O   -0.007950   0.017865   0.000448   0.000449
    17  N    0.207943  -0.043950  -0.044487  -0.045577
    18  H   -0.028043   0.003480  -0.001253  -0.001268
    19  C    4.964603   0.381287   0.381553   0.380662
    20  H    0.381287   0.479831  -0.024885  -0.025031
    21  H    0.381553  -0.024885   0.567907  -0.039071
    22  H    0.380662  -0.025031  -0.039071   0.569986
 Mulliken charges:
               1
     1  C   -0.481255
     2  H    0.161977
     3  H    0.148280
     4  H    0.180484
     5  C    0.493106
     6  O   -0.451873
     7  N   -0.619419
     8  H    0.351113
     9  C   -0.022334
    10  H    0.141232
    11  C   -0.377903
    12  H    0.169098
    13  H    0.129513
    14  H    0.155308
    15  C    0.543882
    16  O   -0.477210
    17  N   -0.634759
    18  H    0.318340
    19  C   -0.251154
    20  H    0.207750
    21  H    0.158496
    22  H    0.157330
 Sum of Mulliken charges =  -0.00000
 Mulliken charges with hydrogens summed into heavy atoms:
               1
     1  C    0.009486
     5  C    0.493106
     6  O   -0.451873
     7  N   -0.268306
     9  C    0.118898
    11  C    0.076015
    15  C    0.543882
    16  O   -0.477210
    17  N   -0.316419
    19  C    0.272421
 Electronic spatial extent (au):  <R**2>=           1980.9100
 Charge=             -0.0000 electrons
 Dipole moment (field-independent basis, Debye):
    X=              4.7835    Y=              5.4137    Z=             -2.2797  Tot=              7.5754
 Quadrupole moment (field-independent basis, Debye-Ang):
   XX=            -66.4829   YY=            -62.9832   ZZ=            -58.8221
   XY=             -3.0178   XZ=             -0.3653   YZ=              0.6996
 Traceless Quadrupole moment (field-independent basis, Debye-Ang):
   XX=             -3.7202   YY=             -0.2205   ZZ=              3.9407
   XY=             -3.0178   XZ=             -0.3653   YZ=              0.6996
 Octapole moment (field-independent basis, Debye-Ang**2):
  XXX=             90.9072  YYY=              3.6143  ZZZ=             -0.0198  XYY=              4.8298
  XXY=             32.1078  XXZ=            -21.4381  XZZ=             -0.2875  YZZ=              0.0247
  YYZ=             -3.4531  XYZ=             -1.0469
 Hexadecapole moment (field-independent basis, Debye-Ang**3):
 XXXX=          -1936.1902 YYYY=           -354.3509 ZZZZ=           -286.1154 XXXY=            -89.4096
 XXXZ=              2.9244 YYYX=             15.1626 YYYZ=             -3.6422 ZZZX=             -4.8857
 ZZZY=             -5.2659 XXYY=           -397.9923 XXZZ=           -353.0127 YYZZ=           -107.9077
 XXYZ=              3.8392 YYXZ=             -8.8618 ZZXY=              4.5106
 N-N= 5.449485640247D+02 E-N=-2.246638258119D+03  KE= 4.928773252293D+02
 No NMR shielding tensors so no spin-rotation constants.
 Leave Link  601 at Sat Jul 18 16:39:44 2020, MaxMem=   104857600 cpu:               0.1 elap:               0.1
 (Enter /opt/g16/g16/l701.exe)
 ... and contract with generalized density number  0.
 Compute integral first derivatives.
 Leave Link  701 at Sat Jul 18 16:39:45 2020, MaxMem=   104857600 cpu:               0.1 elap:               0.1
 (Enter /opt/g16/g16/l702.exe)
 L702 exits ... SP integral derivatives will be done elsewhere.
 Leave Link  702 at Sat Jul 18 16:39:45 2020, MaxMem=   104857600 cpu:               0.0 elap:               0.0
 (Enter /opt/g16/g16/l703.exe)
 Integral derivatives from FoFJK, PRISM(SPDF).
 Compute integral first derivatives, UseDBF=F ICtDFT=           0.
 Calling FoFJK, ICntrl=      2127 FMM=F ISym2X=0 I1Cent= 0 IOpClX= 0 NMat=1 NMatS=1 NMatT=0.
 FoFJK:  IHMeth= 1 ICntrl=    2127 DoSepK=F KAlg= 0 I1Cent=           0 FoldK=F
 IRaf=         0 NMat=       1 IRICut=       1 DoRegI=T DoRafI=F ISym2E= 0 IDoP0=0 IntGTp=1.
 FoFCou: FMM=F IPFlag=           0 FMFlag=      100000 FMFlg1=         800
         NFxFlg=           0 DoJE=F BraDBF=F KetDBF=F FulRan=T
         wScrn=  0.000000 ICntrl=      2127 IOpCl=  0 I1Cent=           0 NGrid=           0
         NMat0=    1 NMatS0=      1 NMatT0=    0 NMatD0=    1 NMtDS0=    0 NMtDT0=    0
 Symmetry not used in FoFCou.
 Leave Link  703 at Sat Jul 18 16:39:59 2020, MaxMem=   104857600 cpu:              14.3 elap:              14.3
 (Enter /opt/g16/g16/l716.exe)
 Dipole        = 1.88195715D+00 2.12991871D+00-8.96908287D-01
 ***** Axes restored to original set *****
 -------------------------------------------------------------------
 Center     Atomic                   Forces (Hartrees/Bohr)
 Number     Number              X              Y              Z
 -------------------------------------------------------------------
      1        6          -0.001450085    0.001893829    0.002149848
      2        1           0.000795025   -0.000691838    0.000978965
      3        1          -0.000605455    0.000764520   -0.000208654
      4        1          -0.000163667    0.000670346    0.000235507
      5        6          -0.003596037    0.002942997    0.003370139
      6        8           0.001220043   -0.002809903   -0.005787363
      7        7           0.004087950   -0.003442631   -0.002782397
      8        1          -0.001035108    0.002411052    0.007219540
      9        6           0.001595690   -0.001679938   -0.004260058
     10        1           0.000441842    0.000024300    0.000002650
     11        6          -0.000926528   -0.000400272   -0.000071842
     12        1          -0.000166204    0.000029081   -0.000027058
     13        1           0.000153740   -0.000100842   -0.000267427
     14        1          -0.000522991   -0.000037156   -0.000285531
     15        6           0.000023345    0.001152990   -0.000023512
     16        8          -0.000167818   -0.000535723   -0.000318729
     17        7           0.000289216   -0.000220901   -0.000011015
     18        1          -0.000024649    0.000009951    0.000068387
     19        6           0.000058307    0.000013956    0.000005300
     20        1          -0.000013670   -0.000011398    0.000028175
     21        1           0.000012431    0.000023217   -0.000008052
     22        1          -0.000005377   -0.000005638   -0.000006874
 -------------------------------------------------------------------
 Cartesian Forces:  Max     0.007219540 RMS     0.001792931
 Leave Link  716 at Sat Jul 18 16:39:59 2020, MaxMem=   104857600 cpu:               0.0 elap:               0.0
 (Enter /opt/g16/g16/l103.exe)

 GradGradGradGradGradGradGradGradGradGradGradGradGradGradGradGradGradGrad
 Berny optimization.
 FormGI is forming the generalized inverse of G from B-inverse, IUseBI=4.
 Internal  Forces:  Max     0.006638162 RMS     0.001331907
 Search for a local minimum.
 Step number   1 out of a maximum of  108
 All quantities printed in internal units (Hartrees-Bohrs-Radians)
 RMS Force = .13319D-02 SwitMx=.10000D-02 MixMth= 1
 Mixed Optimization -- RFO/linear search
 Second derivative matrix not updated -- first step.
 ITU=  0
     Eigenvalues ---    0.00230   0.00258   0.00514   0.00856   0.00919
     Eigenvalues ---    0.01054   0.01124   0.01380   0.01388   0.02045
     Eigenvalues ---    0.02175   0.04689   0.04932   0.05449   0.05625
     Eigenvalues ---    0.06549   0.06965   0.07296   0.07427   0.07713
     Eigenvalues ---    0.15998   0.15998   0.16000   0.16000   0.16000
     Eigenvalues ---    0.16000   0.16000   0.16000   0.16000   0.16000
     Eigenvalues ---    0.16000   0.17191   0.17866   0.22000   0.22000
     Eigenvalues ---    0.24983   0.24996   0.25000   0.25000   0.27732
     Eigenvalues ---    0.28662   0.30460   0.33974   0.34007   0.34112
     Eigenvalues ---    0.34170   0.34202   0.34219   0.34314   0.34341
     Eigenvalues ---    0.34725   0.34800   0.36566   0.37166   0.45011
     Eigenvalues ---    0.46055   0.50345   0.52247   0.82397   0.82958
 RFO step:  Lambda=-5.38374626D-03 EMin= 2.30000000D-03
 Linear search not attempted -- first point.
 Iteration  1 RMS(Cart)=  0.11025540 RMS(Int)=  0.00822269
 Iteration  2 RMS(Cart)=  0.01531031 RMS(Int)=  0.00017920
 Iteration  3 RMS(Cart)=  0.00018862 RMS(Int)=  0.00013522
 Iteration  4 RMS(Cart)=  0.00000004 RMS(Int)=  0.00013522
 ITry= 1 IFail=0 DXMaxC= 5.30D-01 DCOld= 1.00D+10 DXMaxT= 3.00D-01 DXLimC= 3.00D+00 Rises=F
 Variable       Old X    -DE/DX   Delta X   Delta X   Delta X     New X
                                 (Linear)    (Quad)   (Total)
    R1        2.07373  -0.00037   0.00000  -0.00108  -0.00108   2.07266
    R2        2.07044   0.00037   0.00000   0.00106   0.00106   2.07150
    R3        2.06001   0.00018   0.00000   0.00051   0.00051   2.06053
    R4        2.87056   0.00022   0.00000   0.00073   0.00073   2.87129
    R5        2.36359  -0.00101   0.00000  -0.00121  -0.00121   2.36238
    R6        2.59519   0.00382   0.00000   0.00751   0.00751   2.60270
    R7        1.91963  -0.00012   0.00000  -0.00027  -0.00027   1.91936
    R8        2.75596  -0.00063   0.00000  -0.00168  -0.00168   2.75428
    R9        2.07318  -0.00001   0.00000  -0.00002  -0.00002   2.07316
   R10        2.92727  -0.00087   0.00000  -0.00309  -0.00309   2.92418
   R11        2.90714  -0.00008   0.00000  -0.00027  -0.00027   2.90688
   R12        2.06803  -0.00005   0.00000  -0.00015  -0.00015   2.06788
   R13        2.07142   0.00006   0.00000   0.00016   0.00016   2.07159
   R14        2.06759   0.00039   0.00000   0.00111   0.00111   2.06870
   R15        2.36648   0.00040   0.00000   0.00048   0.00048   2.36696
   R16        2.57664   0.00014   0.00000   0.00026   0.00026   2.57689
   R17        1.90770  -0.00001   0.00000  -0.00003  -0.00003   1.90767
   R18        2.76506   0.00004   0.00000   0.00010   0.00010   2.76515
   R19        2.06123   0.00002   0.00000   0.00006   0.00006   2.06129
   R20        2.06963   0.00001   0.00000   0.00003   0.00003   2.06966
   R21        2.06990  -0.00001   0.00000  -0.00003  -0.00003   2.06987
    A1        1.88286   0.00022   0.00000   0.00003   0.00004   1.88290
    A2        1.89516   0.00085   0.00000   0.00651   0.00653   1.90169
    A3        1.94076  -0.00195   0.00000  -0.01186  -0.01185   1.92892
    A4        1.90248  -0.00091   0.00000  -0.00549  -0.00550   1.89698
    A5        1.96046   0.00114   0.00000   0.00619   0.00619   1.96665
    A6        1.88098   0.00066   0.00000   0.00474   0.00474   1.88572
    A7        2.11981  -0.00107   0.00000  -0.00447  -0.00503   2.11478
    A8        2.05134   0.00019   0.00000   0.00041  -0.00015   2.05119
    A9        2.11188   0.00086   0.00000   0.00302   0.00245   2.11433
   A10        2.04141   0.00165   0.00000   0.00927   0.00878   2.05019
   A11        2.23728  -0.00131   0.00000  -0.00561  -0.00610   2.23119
   A12        2.00434  -0.00033   0.00000  -0.00274  -0.00322   2.00113
   A13        1.90993   0.00089   0.00000   0.00588   0.00584   1.91576
   A14        1.96359  -0.00218   0.00000  -0.01314  -0.01315   1.95044
   A15        1.86740   0.00064   0.00000   0.00439   0.00441   1.87181
   A16        1.90794   0.00002   0.00000  -0.00258  -0.00259   1.90536
   A17        1.90424  -0.00066   0.00000  -0.00088  -0.00089   1.90334
   A18        1.90971   0.00132   0.00000   0.00674   0.00676   1.91647
   A19        1.91348   0.00018   0.00000   0.00126   0.00126   1.91475
   A20        1.94302  -0.00033   0.00000  -0.00169  -0.00170   1.94132
   A21        1.92534  -0.00060   0.00000  -0.00410  -0.00410   1.92123
   A22        1.89647   0.00018   0.00000   0.00201   0.00201   1.89847
   A23        1.89073   0.00014   0.00000   0.00029   0.00029   1.89102
   A24        1.89377   0.00045   0.00000   0.00237   0.00237   1.89614
   A25        2.10966  -0.00028   0.00000  -0.00099  -0.00101   2.10866
   A26        2.02009   0.00050   0.00000   0.00207   0.00206   2.02215
   A27        2.15276  -0.00022   0.00000  -0.00076  -0.00077   2.15198
   A28        2.07870  -0.00007   0.00000  -0.00037  -0.00037   2.07833
   A29        2.13766   0.00006   0.00000   0.00029   0.00029   2.13795
   A30        2.06670   0.00001   0.00000   0.00011   0.00011   2.06681
   A31        1.87616  -0.00002   0.00000  -0.00011  -0.00011   1.87605
   A32        1.93718   0.00000   0.00000   0.00003   0.00003   1.93721
   A33        1.93832   0.00000   0.00000  -0.00003  -0.00003   1.93829
   A34        1.90291   0.00002   0.00000   0.00023   0.00023   1.90314
   A35        1.90533   0.00000   0.00000  -0.00003  -0.00003   1.90529
   A36        1.90331  -0.00001   0.00000  -0.00008  -0.00008   1.90323
    D1       -1.99216   0.00008   0.00000   0.00740   0.00734  -1.98482
    D2        1.13031  -0.00093   0.00000  -0.05431  -0.05424   1.07607
    D3        2.17892   0.00039   0.00000   0.01148   0.01142   2.19034
    D4       -0.98179  -0.00063   0.00000  -0.05023  -0.05016  -1.03195
    D5        0.08302   0.00040   0.00000   0.01140   0.01132   0.09434
    D6       -3.07769  -0.00062   0.00000  -0.05031  -0.05026  -3.12795
    D7       -2.74221  -0.00560   0.00000  -0.21432  -0.21435  -2.95656
    D8        0.37984  -0.00444   0.00000  -0.15296  -0.15278   0.22706
    D9        0.38036  -0.00664   0.00000  -0.27582  -0.27600   0.10436
   D10       -2.78078  -0.00547   0.00000  -0.21446  -0.21443  -2.99521
   D11       -0.60446  -0.00061   0.00000  -0.04766  -0.04757  -0.65203
   D12        1.52004  -0.00142   0.00000  -0.05563  -0.05556   1.46448
   D13       -2.66537  -0.00066   0.00000  -0.05223  -0.05217  -2.71753
   D14        2.51793   0.00055   0.00000   0.01271   0.01266   2.53059
   D15       -1.64075  -0.00026   0.00000   0.00475   0.00467  -1.63608
   D16        0.45703   0.00050   0.00000   0.00815   0.00806   0.46508
   D17        1.05029   0.00011   0.00000  -0.00232  -0.00235   1.04794
   D18       -3.13393   0.00025   0.00000  -0.00007  -0.00009  -3.13402
   D19       -1.03046   0.00020   0.00000  -0.00095  -0.00097  -1.03142
   D20       -3.10727  -0.00020   0.00000  -0.00546  -0.00544  -3.11271
   D21       -1.00830  -0.00007   0.00000  -0.00320  -0.00319  -1.01149
   D22        1.09517  -0.00012   0.00000  -0.00408  -0.00407   1.09111
   D23       -1.02289  -0.00020   0.00000  -0.00404  -0.00403  -1.02692
   D24        1.07608  -0.00006   0.00000  -0.00178  -0.00178   1.07431
   D25       -3.10363  -0.00011   0.00000  -0.00266  -0.00265  -3.10628
   D26       -0.49927   0.00115   0.00000   0.03932   0.03931  -0.45996
   D27        2.68049   0.00101   0.00000   0.03036   0.03035   2.71084
   D28       -2.56388   0.00009   0.00000   0.03037   0.03038  -2.53350
   D29        0.61587  -0.00005   0.00000   0.02142   0.02143   0.63730
   D30        1.63264  -0.00033   0.00000   0.03002   0.03002   1.66266
   D31       -1.47079  -0.00048   0.00000   0.02106   0.02107  -1.44973
   D32       -0.07321   0.00010   0.00000   0.00575   0.00575  -0.06746
   D33        3.08565   0.00006   0.00000   0.00373   0.00373   3.08939
   D34        3.10759  -0.00005   0.00000  -0.00344  -0.00344   3.10415
   D35       -0.01673  -0.00009   0.00000  -0.00546  -0.00546  -0.02219
   D36       -0.00259   0.00001   0.00000   0.00102   0.00102  -0.00157
   D37        2.07699   0.00003   0.00000   0.00125   0.00125   2.07824
   D38       -2.08576   0.00002   0.00000   0.00114   0.00114  -2.08462
   D39       -3.12702  -0.00003   0.00000  -0.00098  -0.00098  -3.12800
   D40       -1.04744  -0.00001   0.00000  -0.00075  -0.00075  -1.04820
   D41        1.07299  -0.00002   0.00000  -0.00085  -0.00085   1.07213
         Item               Value     Threshold  Converged?
 Maximum Force            0.006638     0.000450     NO 
 RMS     Force            0.001332     0.000300     NO 
 Maximum Displacement     0.530172     0.001800     NO 
 RMS     Displacement     0.123396     0.001200     NO 
 Predicted change in Energy=-3.267739D-03
 Lowest energy point so far.  Saving SCF results.
 GradGradGradGradGradGradGradGradGradGradGradGradGradGradGradGradGradGrad

 Leave Link  103 at Sat Jul 18 16:39:59 2020, MaxMem=   104857600 cpu:               0.0 elap:               0.0
 (Enter /opt/g16/g16/l202.exe)
                          Input orientation:                          
 ---------------------------------------------------------------------
 Center     Atomic      Atomic             Coordinates (Angstroms)
 Number     Number       Type             X           Y           Z
 ---------------------------------------------------------------------
      1          6           0       -2.631731    1.298318   -1.209775
      2          1           0       -2.063477    1.278710   -2.147688
      3          1           0       -2.346208    2.203945   -0.662093
      4          1           0       -3.695930    1.350992   -1.441384
      5          6           0       -2.386061    0.028994   -0.411592
      6          8           0       -3.302336   -0.797911   -0.212946
      7          7           0       -1.096534   -0.224025    0.000748
      8          1           0       -0.899878   -1.142647    0.386844
      9          6           0        0.038402    0.690434   -0.001102
     10          1           0       -0.000441    1.328141   -0.892944
     11          6           0        0.056895    1.584034    1.262074
     12          1           0        0.125355    0.957293    2.156474
     13          1           0        0.909163    2.273368    1.248220
     14          1           0       -0.865990    2.169805    1.321588
     15          6           0        1.314683   -0.166743   -0.051889
     16          8           0        1.320160   -1.336622    0.395559
     17          7           0        2.418591    0.440421   -0.573651
     18          1           0        2.334520    1.374738   -0.946569
     19          6           0        3.724036   -0.217977   -0.632346
     20          1           0        3.609514   -1.212266   -0.198644
     21          1           0        4.067312   -0.317099   -1.667639
     22          1           0        4.472404    0.340187   -0.059509
 ---------------------------------------------------------------------
                    Distance matrix (angstroms):
                    1          2          3          4          5
     1  C    0.000000
     2  H    1.096804   0.000000
     3  H    1.096193   1.772848   0.000000
     4  H    1.090383   1.780167   1.776675   0.000000
     5  C    1.519420   2.163304   2.189693   2.126948   0.000000
     6  O    2.416103   3.096829   3.182303   2.506343   1.250116
     7  N    2.477847   2.794453   2.809997   3.364117   1.377289
     8  H    3.392171   3.693344   3.793655   4.168760   2.054016
     9  C    2.993331   3.061339   2.900688   4.056597   2.546375
    10  H    2.650464   2.415148   2.514547   3.736033   2.758744
    11  C    3.663385   4.026870   3.140321   4.631057   3.344749
    12  H    4.364569   4.839433   3.950581   5.263250   3.709975
    13  H    4.419321   4.621485   3.775123   5.412174   4.318645
    14  H    3.207044   3.776758   2.475318   4.038939   3.146045
    15  C    4.365924   4.230091   4.403934   5.416683   3.723333
    16  O    5.013726   4.975647   5.205430   5.979865   4.031436
    17  N    5.162015   4.823822   5.081451   6.242553   4.824959
    18  H    4.973809   4.560075   4.762114   6.050763   4.937724
    19  C    6.559600   6.166979   6.535629   7.627063   6.119070
    20  H    6.802835   6.495118   6.881563   7.841186   6.126418
    21  H    6.906258   6.353238   6.964196   7.943655   6.583576
    22  H    7.260156   6.925248   7.094376   8.345836   6.874544
                    6          7          8          9         10
     6  O    0.000000
     7  N    2.289230   0.000000
     8  H    2.500080   1.015682   0.000000
     9  C    3.663411   1.457504   2.095484   0.000000
    10  H    3.985600   2.099839   2.924319   1.097071   0.000000
    11  C    4.374218   2.488056   3.019309   1.547410   2.170916
    12  H    4.521500   2.745120   2.931286   2.175755   3.074461
    13  H    5.413362   3.437438   3.960272   2.196523   2.511059
    14  H    4.134962   2.743755   3.441981   2.180819   2.522246
    15  C    4.662744   2.412471   2.459503   1.538254   2.161390
    16  O    4.693395   2.689638   2.228513   2.430884   3.241172
    17  N    5.864519   3.623193   3.800117   2.460817   2.596481
    18  H    6.085454   3.901998   4.310052   2.575722   2.336042
    19  C    7.062727   4.861968   4.824349   3.848061   4.041054
    20  H    6.924274   4.812823   4.547775   4.051189   4.468501
    21  H    7.527219   5.427475   5.438328   4.474884   4.455736
    22  H    7.859096   5.597770   5.591014   4.448197   4.655858
                   11         12         13         14         15
    11  C    0.000000
    12  H    1.094277   0.000000
    13  H    1.096236   1.780824   0.000000
    14  H    1.094709   1.774820   1.779685   0.000000
    15  C    2.524629   2.748605   2.794437   3.478683   0.000000
    16  O    3.298017   3.128966   3.732021   4.234597   1.252540
    17  N    3.202396   3.602731   2.992872   4.167874   1.363634
    18  H    3.179542   3.831912   2.766998   4.002491   2.053457
    19  C    4.503775   4.702050   4.203194   5.530615   2.478817
    20  H    4.751220   4.732117   4.640577   5.812026   2.526045
    21  H    5.317986   5.637991   5.018632   6.281532   3.195344
    22  H    4.773935   4.918153   4.259581   5.809766   3.198161
                   16         17         18         19         20
    16  O    0.000000
    17  N    2.302999   0.000000
    18  H    3.190879   1.009497   0.000000
    19  C    2.843691   1.463256   2.136873   0.000000
    20  H    2.368478   2.071304   2.979528   1.090790   0.000000
    21  H    3.583722   2.118709   2.526821   1.095215   1.780126
    22  H    3.599364   2.119560   2.535295   1.095328   1.781585
                   21         22
    21  H    0.000000
    22  H    1.783874   0.000000
 Stoichiometry    C6H12N2O2
 Framework group  C1[X(C6H12N2O2)]
 Deg. of freedom    60
 Full point group                 C1      NOp   1
 RotChk:  IX=0 Diff= 3.14D-02
 Largest Abelian subgroup         C1      NOp   1
 Largest concise Abelian subgroup C1      NOp   1
                         Standard orientation:                         
 ---------------------------------------------------------------------
 Center     Atomic      Atomic             Coordinates (Angstroms)
 Number     Number       Type             X           Y           Z
 ---------------------------------------------------------------------
      1          6           0       -2.732671    0.891225   -1.005581
      2          1           0       -2.196408    0.870823   -1.962129
      3          1           0       -2.491338    1.835837   -0.504475
      4          1           0       -3.805196    0.862955   -1.200070
      5          6           0       -2.374053   -0.324657   -0.167929
      6          8           0       -3.224472   -1.202055    0.096174
      7          7           0       -1.057065   -0.473550    0.206632
      8          1           0       -0.785192   -1.360171    0.620877
      9          6           0        0.012046    0.513912    0.127643
     10          1           0       -0.100367    1.110089   -0.786414
     11          6           0        0.012112    1.458320    1.353436
     12          1           0        0.153393    0.875162    2.268537
     13          1           0        0.814348    2.201951    1.281569
     14          1           0       -0.946092    1.983010    1.423673
     15          6           0        1.341451   -0.257343    0.063820
     16          8           0        1.441934   -1.404688    0.556120
     17          7           0        2.383054    0.400159   -0.521204
     18          1           0        2.222812    1.310503   -0.927012
     19          6           0        3.727692   -0.171310   -0.601752
     20          1           0        3.696069   -1.152205   -0.125656
     21          1           0        4.041774   -0.290063   -1.644223
     22          1           0        4.455107    0.458917   -0.078850
 ---------------------------------------------------------------------
 Rotational constants (GHZ):           2.6787087           0.6389103           0.5984274
 Leave Link  202 at Sat Jul 18 16:39:59 2020, MaxMem=   104857600 cpu:               0.0 elap:               0.0
 (Enter /opt/g16/g16/l301.exe)
 Standard basis: 6-31G (6D, 7F)
 Ernie: Thresh=  0.10000D-02 Tol=  0.10000D-05 Strict=F.
 There are   114 symmetry adapted cartesian basis functions of A   symmetry.
 There are   114 symmetry adapted basis functions of A   symmetry.
   114 basis functions,   268 primitive gaussians,   114 cartesian basis functions
    39 alpha electrons       39 beta electrons
       nuclear repulsion energy       545.1146061981 Hartrees.
 IExCor=  402 DFT=T Ex+Corr=B3LYP ExCW=0 ScaHFX=  0.200000
 ScaDFX=  0.800000  0.720000  1.000000  0.810000 ScalE2=  1.000000  1.000000
 IRadAn=      5 IRanWt=     -1 IRanGd=            0 ICorTp=0 IEmpDi=  4
 NAtoms=   22 NActive=   22 NUniq=   22 SFac= 1.00D+00 NAtFMM=   60 NAOKFM=F Big=F
 Integral buffers will be    131072 words long.
 Raffenetti 2 integral format.
 Two-electron integral symmetry is turned on.
 Leave Link  301 at Sat Jul 18 16:39:59 2020, MaxMem=   104857600 cpu:               0.1 elap:               0.1
 (Enter /opt/g16/g16/l302.exe)
 NPDir=0 NMtPBC=     1 NCelOv=     1 NCel=       1 NClECP=     1 NCelD=      1
         NCelK=      1 NCelE2=     1 NClLst=     1 CellRange=     0.0.
 One-electron integrals computed using PRISM.
 One-electron integral symmetry used in STVInt
 NBasis=   114 RedAO= T EigKep=  3.77D-03  NBF=   114
 NBsUse=   114 1.00D-06 EigRej= -1.00D+00 NBFU=   114
 Precomputing XC quadrature grid using
 IXCGrd= 4 IRadAn=           5 IRanWt=          -1 IRanGd=           0 AccXCQ= 0.00D+00.
 Generated NRdTot=       0 NPtTot=           0 NUsed=           0 NTot=          32
 NSgBfM=   114   114   114   114   114 MxSgAt=    22 MxSgA2=    22.
 Leave Link  302 at Sat Jul 18 16:40:00 2020, MaxMem=   104857600 cpu:               0.9 elap:               0.9
 (Enter /opt/g16/g16/l303.exe)
 DipDrv:  MaxL=1.
 Leave Link  303 at Sat Jul 18 16:40:00 2020, MaxMem=   104857600 cpu:               0.0 elap:               0.0
 (Enter /opt/g16/g16/l401.exe)
 Initial guess from the checkpoint file:  "/tmp/scratch/Gau-27268.chk"
 B after Tr=     0.000000    0.000000    0.000000
         Rot=    0.999978    0.005540   -0.000059   -0.003553 Ang=   0.75 deg.
 Guess basis will be translated and rotated to current coordinates.
 JPrj=2 DoOrth=T DoCkMO=T.
 Generating alternative initial guess.
 ExpMin= 1.61D-01 ExpMax= 5.48D+03 ExpMxC= 8.25D+02 IAcc=2 IRadAn=         4 AccDes= 0.00D+00
 Harris functional with IExCor=  402 and IRadAn=       4 diagonalized for initial guess.
 HarFok:  IExCor=  402 AccDes= 0.00D+00 IRadAn=         4 IDoV= 1 UseB2=F ITyADJ=14
 ICtDFT=  3500011 ScaDFX=  1.000000  1.000000  1.000000  1.000000
 FoFCou: FMM=F IPFlag=           0 FMFlag=      100000 FMFlg1=           0
         NFxFlg=           0 DoJE=T BraDBF=F KetDBF=T FulRan=T
         wScrn=  0.000000 ICntrl=       500 IOpCl=  0 I1Cent=   200000004 NGrid=           0
         NMat0=    1 NMatS0=      1 NMatT0=    0 NMatD0=    1 NMtDS0=    0 NMtDT0=    0
 Petite list used in FoFCou.
 Harris En= -495.746586581463    
 Leave Link  401 at Sat Jul 18 16:40:02 2020, MaxMem=   104857600 cpu:               2.4 elap:               2.4
 (Enter /opt/g16/g16/l502.exe)
 Keep R1 ints in memory in canonical form, NReq=22427569.
 FoFCou: FMM=F IPFlag=           0 FMFlag=           0 FMFlg1=           0
         NFxFlg=           0 DoJE=F BraDBF=F KetDBF=F FulRan=T
         wScrn=  0.000000 ICntrl=       600 IOpCl=  0 I1Cent=           0 NGrid=           0
         NMat0=    1 NMatS0=   6555 NMatT0=    0 NMatD0=    1 NMtDS0=    0 NMtDT0=    0
 Symmetry not used in FoFCou.
 Two-electron integral symmetry not used.
 Closed shell SCF:
 Using DIIS extrapolation, IDIIS=  1040.
 NGot=   104857600 LenX=    83341928 LenY=    83328491
 Requested convergence on RMS density matrix=1.00D-08 within 128 cycles.
 Requested convergence on MAX density matrix=1.00D-06.
 Requested convergence on             energy=1.00D-06.
 No special actions if energy rises.
 Integral accuracy reduced to 1.0D-05 until final iterations.

 Cycle   1  Pass 0  IDiag  1:
 E= -495.670772426835    
 DIIS: error= 9.21D-03 at cycle   1 NSaved=   1.
 NSaved= 1 IEnMin= 1 EnMin= -495.670772426835     IErMin= 1 ErrMin= 9.21D-03
 ErrMax= 9.21D-03  0.00D+00 EMaxC= 1.00D-01 BMatC= 1.17D-02 BMatP= 1.17D-02
 IDIUse=3 WtCom= 9.08D-01 WtEn= 9.21D-02
 Coeff-Com:  0.100D+01
 Coeff-En:   0.100D+01
 Coeff:      0.100D+01
 Gap=     0.617 Goal=   None    Shift=    0.000
 GapD=    0.617 DampG=2.000 DampE=1.000 DampFc=2.0000 IDamp=-1.
 RMSDP=1.88D-03 MaxDP=4.17D-02              OVMax= 4.91D-02

 Cycle   2  Pass 0  IDiag  1:
 E= -495.697094958487     Delta-E=       -0.026322531652 Rises=F Damp=F
 DIIS: error= 1.32D-03 at cycle   2 NSaved=   2.
 NSaved= 2 IEnMin= 2 EnMin= -495.697094958487     IErMin= 2 ErrMin= 1.32D-03
 ErrMax= 1.32D-03  0.00D+00 EMaxC= 1.00D-01 BMatC= 1.79D-04 BMatP= 1.17D-02
 IDIUse=3 WtCom= 9.87D-01 WtEn= 1.32D-02
 Coeff-Com: -0.748D-01 0.107D+01
 Coeff-En:   0.000D+00 0.100D+01
 Coeff:     -0.739D-01 0.107D+01
 Gap=     0.240 Goal=   None    Shift=    0.000
 RMSDP=3.18D-04 MaxDP=5.54D-03 DE=-2.63D-02 OVMax= 1.13D-02

 Cycle   3  Pass 0  IDiag  1:
 E= -495.697174385260     Delta-E=       -0.000079426773 Rises=F Damp=F
 DIIS: error= 1.96D-03 at cycle   3 NSaved=   3.
 NSaved= 3 IEnMin= 3 EnMin= -495.697174385260     IErMin= 2 ErrMin= 1.32D-03
 ErrMax= 1.96D-03  0.00D+00 EMaxC= 1.00D-01 BMatC= 3.15D-04 BMatP= 1.79D-04
 IDIUse=3 WtCom= 1.84D-01 WtEn= 8.16D-01
 Coeff-Com: -0.560D-01 0.687D+00 0.369D+00
 Coeff-En:   0.000D+00 0.370D+00 0.630D+00
 Coeff:     -0.103D-01 0.429D+00 0.582D+00
 Gap=     0.234 Goal=   None    Shift=    0.000
 RMSDP=3.56D-04 MaxDP=9.61D-03 DE=-7.94D-05 OVMax= 1.22D-02

 Cycle   4  Pass 0  IDiag  1:
 E= -495.697156059761     Delta-E=        0.000018325499 Rises=F Damp=F
 DIIS: error= 2.08D-03 at cycle   4 NSaved=   4.
 NSaved= 4 IEnMin= 3 EnMin= -495.697174385260     IErMin= 2 ErrMin= 1.32D-03
 ErrMax= 2.08D-03  0.00D+00 EMaxC= 1.00D-01 BMatC= 3.36D-04 BMatP= 1.79D-04
 IDIUse=3 WtCom= 1.80D-01 WtEn= 8.20D-01
 Coeff-Com: -0.775D-02 0.687D-01 0.491D+00 0.448D+00
 Coeff-En:   0.000D+00 0.000D+00 0.512D+00 0.488D+00
 Coeff:     -0.139D-02 0.124D-01 0.509D+00 0.480D+00
 Gap=     0.237 Goal=   None    Shift=    0.000
 RMSDP=1.83D-04 MaxDP=4.83D-03 DE= 1.83D-05 OVMax= 6.53D-03

 Cycle   5  Pass 0  IDiag  1:
 E= -495.697427531541     Delta-E=       -0.000271471780 Rises=F Damp=F
 DIIS: error= 8.33D-05 at cycle   5 NSaved=   5.
 NSaved= 5 IEnMin= 5 EnMin= -495.697427531541     IErMin= 5 ErrMin= 8.33D-05
 ErrMax= 8.33D-05  0.00D+00 EMaxC= 1.00D-01 BMatC= 1.25D-06 BMatP= 1.79D-04
 IDIUse=1 WtCom= 1.00D+00 WtEn= 0.00D+00
 Coeff-Com: -0.135D-02 0.157D-02 0.245D+00 0.236D+00 0.519D+00
 Coeff:     -0.135D-02 0.157D-02 0.245D+00 0.236D+00 0.519D+00
 Gap=     0.237 Goal=   None    Shift=    0.000
 RMSDP=1.03D-05 MaxDP=2.21D-04 DE=-2.71D-04 OVMax= 2.10D-04

 Cycle   6  Pass 0  IDiag  1:
 E= -495.697428767320     Delta-E=       -0.000001235779 Rises=F Damp=F
 DIIS: error= 1.77D-05 at cycle   6 NSaved=   6.
 NSaved= 6 IEnMin= 6 EnMin= -495.697428767320     IErMin= 6 ErrMin= 1.77D-05
 ErrMax= 1.77D-05  0.00D+00 EMaxC= 1.00D-01 BMatC= 5.04D-08 BMatP= 1.25D-06
 IDIUse=1 WtCom= 1.00D+00 WtEn= 0.00D+00
 Coeff-Com:  0.241D-03-0.678D-02 0.388D-01 0.410D-01 0.187D+00 0.740D+00
 Coeff:      0.241D-03-0.678D-02 0.388D-01 0.410D-01 0.187D+00 0.740D+00
 Gap=     0.237 Goal=   None    Shift=    0.000
 RMSDP=4.26D-06 MaxDP=7.29D-05 DE=-1.24D-06 OVMax= 1.27D-04

 Initial convergence to 1.0D-05 achieved.  Increase integral accuracy.
 Cycle   7  Pass 1  IDiag  1:
 E= -495.697432626998     Delta-E=       -0.000003859678 Rises=F Damp=F
 DIIS: error= 2.54D-05 at cycle   1 NSaved=   1.
 NSaved= 1 IEnMin= 1 EnMin= -495.697432626998     IErMin= 1 ErrMin= 2.54D-05
 ErrMax= 2.54D-05  0.00D+00 EMaxC= 1.00D-01 BMatC= 4.83D-08 BMatP= 4.83D-08
[...]
 ---------------------------------------------------------------------
                    Distance matrix (angstroms):
                    1          2          3          4          5
     1  C    0.000000
     2  H    1.097361   0.000000
     3  H    1.095616   1.772837   0.000000
     4  H    1.090112   1.776306   1.779352   0.000000
     5  C    1.519033   2.171892   2.184590   2.122908   0.000000
     6  O    2.419538   3.110522   3.177601   2.506009   1.250695
     7  N    2.474338   2.823627   2.783117   3.356639   1.373229
     8  H    3.391272   3.749689   3.751525   4.160328   2.045195
     9  C    2.984524   3.034713   2.908241   4.049853   2.547340
    10  H    2.661095   2.369006   2.604740   3.742396   2.745849
    11  C    3.620077   3.932226   3.074745   4.608446   3.386535
    12  H    4.318591   4.768199   3.849392   5.237064   3.760023
    13  H    4.381579   4.510742   3.744961   5.393547   4.352994
    14  H    3.148828   3.648260   2.369503   4.012062   3.210397
    15  C    4.376615   4.256373   4.428302   5.420632   3.708378
    16  O    5.028614   5.039511   5.203126   5.986149   4.018948
    17  N    5.178572   4.834451   5.142322   6.251960   4.804939
    18  H    4.987223   4.536188   4.846564   6.059110   4.918105
    19  C    6.583306   6.201104   6.597343   7.641669   6.095874
    20  H    6.827400   6.552353   6.922552   7.855553   6.104288
    21  H    6.946152   6.409721   7.059161   7.970185   6.550729
    22  H    7.270416   6.928656   7.140837   8.351538   6.858534
                    6          7          8          9         10
     6  O    0.000000
     7  N    2.284538   0.000000
     8  H    2.483978   1.015840   0.000000
     9  C    3.666173   1.458323   2.098304   0.000000
    10  H    3.961251   2.096456   2.920539   1.097092   0.000000
    11  C    4.454999   2.501184   3.037518   1.549177   2.174354
    12  H    4.625106   2.760721   2.955373   2.176435   3.076472
    13  H    5.481717   3.448016   3.975604   2.199220   2.515239
    14  H    4.253948   2.762658   3.464422   2.184960   2.530714
    15  C    4.630581   2.409206   2.455206   1.538233   2.162099
    16  O    4.660606   2.689569   2.226796   2.431426   3.243571
    17  N    5.820719   3.618323   3.793942   2.459124   2.595540
    18  H    6.044763   3.896378   4.303723   2.573839   2.333603
    19  C    7.007487   4.857469   4.817624   3.846587   4.040626
    20  H    6.868962   4.809503   4.541945   4.050308   4.468939
    21  H    7.446471   5.421071   5.426745   4.473842   4.456043
    22  H    7.823146   5.594309   5.588222   4.445677   4.653821
                   11         12         13         14         15
    11  C    0.000000
    12  H    1.094361   0.000000
    13  H    1.096130   1.779519   0.000000
    14  H    1.094105   1.774203   1.777587   0.000000
    15  C    2.519967   2.739631   2.790601   3.476746   0.000000
    16  O    3.289847   3.113735   3.723574   4.229187   1.252340
    17  N    3.193991   3.590111   2.983601   4.162147   1.363465
    18  H    3.174198   3.824009   2.761836   3.999294   2.053662
    19  C    4.492680   4.684938   4.189679   5.521710   2.478416
    20  H    4.739842   4.713575   4.626870   5.802786   2.525598
    21  H    5.308891   5.622728   5.007140   6.276041   3.194464
    22  H    4.760037   4.898786   4.242562   5.795895   3.198038
                   16         17         18         19         20
    16  O    0.000000
    17  N    2.303074   0.000000
    18  H    3.191121   1.009538   0.000000
    19  C    2.843613   1.463277   2.136813   0.000000
    20  H    2.368378   2.071358   2.979526   1.090756   0.000000
    21  H    3.584459   2.118497   2.525975   1.095165   1.780052
    22  H    3.598312   2.119478   2.535569   1.095331   1.781643
                   21         22
    21  H    0.000000
    22  H    1.783973   0.000000
 Stoichiometry    C6H12N2O2
 Framework group  C1[X(C6H12N2O2)]
 Deg. of freedom    60
 Full point group                 C1      NOp   1
 RotChk:  IX=0 Diff= 2.25D-15
 Largest Abelian subgroup         C1      NOp   1
 Largest concise Abelian subgroup C1      NOp   1
                         Standard orientation:                         
 ---------------------------------------------------------------------
 Center     Atomic      Atomic             Coordinates (Angstroms)
 Number     Number       Type             X           Y           Z
 ---------------------------------------------------------------------
      1          6           0       -2.765820    0.890608   -0.936963
      2          1           0       -2.236232    0.957070   -1.895775
      3          1           0       -2.559016    1.807571   -0.374127
      4          1           0       -3.836115    0.829435   -1.134627
      5          6           0       -2.363296   -0.358884   -0.172628
      6          8           0       -3.179940   -1.279977    0.048546
      7          7           0       -1.059853   -0.452891    0.249221
      8          1           0       -0.786014   -1.315617    0.710357
      9          6           0        0.009097    0.527839    0.100155
     10          1           0       -0.111246    1.056946   -0.853350
     11          6           0        0.034971    1.557187    1.257619
     12          1           0        0.189846    1.037705    2.208292
     13          1           0        0.839972    2.288782    1.122553
     14          1           0       -0.916947    2.094012    1.309947
     15          6           0        1.334946   -0.251816    0.079569
     16          8           0        1.439817   -1.356860    0.659428
     17          7           0        2.371718    0.359660   -0.560931
     18          1           0        2.208442    1.236735   -1.033422
     19          6           0        3.715228   -0.218043   -0.610117
     20          1           0        3.687096   -1.160660   -0.062000
     21          1           0        4.019919   -0.414594   -1.643518
     22          1           0        4.447469    0.448592   -0.141962
 ---------------------------------------------------------------------
 Rotational constants (GHZ):           2.6440253           0.6449783           0.5979803
 Leave Link  202 at Sat Jul 18 16:52:50 2020, MaxMem=   104857600 cpu:               0.0 elap:               0.0
 (Enter /opt/g16/g16/l601.exe)
 Copying SCF densities to generalized density rwf, IOpCl= 0 IROHF=0.

 **********************************************************************

            Population analysis using the SCF density.

 **********************************************************************

 Orbital symmetries:
       Occupied  (A) (A) (A) (A) (A) (A) (A) (A) (A) (A) (A) (A)
                 (A) (A) (A) (A) (A) (A) (A) (A) (A) (A) (A) (A)
                 (A) (A) (A) (A) (A) (A) (A) (A) (A) (A) (A) (A)
                 (A) (A) (A)
       Virtual   (A) (A) (A) (A) (A) (A) (A) (A) (A) (A) (A) (A)
                 (A) (A) (A) (A) (A) (A) (A) (A) (A) (A) (A) (A)
                 (A) (A) (A) (A) (A) (A) (A) (A) (A) (A) (A) (A)
                 (A) (A) (A) (A) (A) (A) (A) (A) (A) (A) (A) (A)
                 (A) (A) (A) (A) (A) (A) (A) (A) (A) (A) (A) (A)
                 (A) (A) (A) (A) (A) (A) (A) (A) (A) (A) (A) (A)
                 (A) (A) (A)
 The electronic state is 1-A.
 Alpha  occ. eigenvalues --  -19.13172 -19.09939 -14.38240 -14.34812 -10.31041
 Alpha  occ. eigenvalues --  -10.28737 -10.25537 -10.22861 -10.19601 -10.18665
 Alpha  occ. eigenvalues --   -1.05959  -1.02671  -0.94511  -0.92408  -0.78796
 Alpha  occ. eigenvalues --   -0.74187  -0.72872  -0.66629  -0.61193  -0.58370
 Alpha  occ. eigenvalues --   -0.54498  -0.50143  -0.47731  -0.47108  -0.45822
 Alpha  occ. eigenvalues --   -0.45364  -0.43934  -0.42177  -0.41205  -0.40583
 Alpha  occ. eigenvalues --   -0.40268  -0.38367  -0.37561  -0.37361  -0.35207
 Alpha  occ. eigenvalues --   -0.27097  -0.27057  -0.24127  -0.23635
 Alpha virt. eigenvalues --   -0.00007   0.02669   0.04823   0.08542   0.10560
 Alpha virt. eigenvalues --    0.10928   0.12374   0.13912   0.15050   0.15400
 Alpha virt. eigenvalues --    0.15973   0.16486   0.16657   0.18557   0.19618
 Alpha virt. eigenvalues --    0.20909   0.21540   0.24300   0.25548   0.32972
 Alpha virt. eigenvalues --    0.33829   0.37362   0.39714   0.50068   0.51649
 Alpha virt. eigenvalues --    0.52555   0.52809   0.54170   0.55421   0.57503
 Alpha virt. eigenvalues --    0.59924   0.60708   0.61622   0.65172   0.66584
 Alpha virt. eigenvalues --    0.69097   0.69931   0.70836   0.72843   0.76466
 Alpha virt. eigenvalues --    0.76900   0.77609   0.78431   0.83848   0.86696
 Alpha virt. eigenvalues --    0.88568   0.89417   0.91060   0.91911   0.92662
 Alpha virt. eigenvalues --    0.94178   0.95152   0.95723   0.95931   0.97354
 Alpha virt. eigenvalues --    0.97712   1.00529   1.01562   1.03471   1.05460
 Alpha virt. eigenvalues --    1.06150   1.10862   1.14513   1.17663   1.20230
 Alpha virt. eigenvalues --    1.23677   1.29995   1.36913   1.46077   1.51564
 Alpha virt. eigenvalues --    1.59125   1.64161   1.72620   1.91973   1.98792
          Condensed to atoms (all electrons):
               1          2          3          4          5          6
     1  C    5.492927   0.345995   0.337818   0.349265   0.232248  -0.107116
     2  H    0.345995   0.564444  -0.029990  -0.021525  -0.022312   0.001418
     3  H    0.337818  -0.029990   0.572756  -0.022349  -0.019651   0.002137
     4  H    0.349265  -0.021525  -0.022349   0.518465  -0.018919   0.006704
     5  C    0.232248  -0.022312  -0.019651  -0.018919   4.673600   0.605238
     6  O   -0.107116   0.001418   0.002137   0.006704   0.605238   8.069240
     7  N   -0.176926   0.003380   0.003491   0.006287   0.055283  -0.125123
     8  H    0.006473  -0.000189  -0.000205  -0.000106  -0.007158   0.005136
     9  C    0.005786  -0.002488   0.000048   0.000024   0.002952   0.002851
    10  H    0.003137   0.003306  -0.000954  -0.000022  -0.005255   0.000053
    11  C   -0.002820   0.000114  -0.000043   0.000041  -0.001730  -0.000003
    12  H    0.000037  -0.000001  -0.000054   0.000000  -0.000267  -0.000007
    13  H    0.000066  -0.000005  -0.000063  -0.000001   0.000018  -0.000000
    14  H   -0.000658  -0.000012   0.004800  -0.000033   0.001342  -0.000044
    15  C   -0.000534   0.000018   0.000168   0.000000   0.002207  -0.000124
    16  O   -0.000021   0.000000  -0.000001   0.000000   0.000422  -0.000000
    17  N   -0.000011  -0.000004  -0.000001   0.000000  -0.000075   0.000000
    18  H    0.000003  -0.000008   0.000000  -0.000000   0.000000  -0.000000
    19  C   -0.000000   0.000000   0.000000   0.000000  -0.000001  -0.000000
    20  H    0.000000   0.000000   0.000000  -0.000000  -0.000000  -0.000000
    21  H    0.000000   0.000000  -0.000000   0.000000  -0.000000   0.000000
    22  H   -0.000000  -0.000000   0.000000  -0.000000  -0.000000   0.000000
               7          8          9         10         11         12
     1  C   -0.176926   0.006473   0.005786   0.003137  -0.002820   0.000037
     2  H    0.003380  -0.000189  -0.002488   0.003306   0.000114  -0.000001
     3  H    0.003491  -0.000205   0.000048  -0.000954  -0.000043  -0.000054
     4  H    0.006287  -0.000106   0.000024  -0.000022   0.000041   0.000000
     5  C    0.055283  -0.007158   0.002952  -0.005255  -0.001730  -0.000267
     6  O   -0.125123   0.005136   0.002851   0.000053  -0.000003  -0.000007
     7  N    7.559101   0.286632   0.171768  -0.050893  -0.075767  -0.000746
     8  H    0.286632   0.371241  -0.050137   0.003974   0.002122   0.001236
     9  C    0.171768  -0.050137   5.372311   0.367763   0.306381  -0.035631
    10  H   -0.050893   0.003974   0.367763   0.611390  -0.051275   0.005363
    11  C   -0.075767   0.002122   0.306381  -0.051275   5.171404   0.373799
    12  H   -0.000746   0.001236  -0.035631   0.005363   0.373799   0.543677
    13  H    0.005813  -0.000035  -0.030985  -0.000255   0.344342  -0.027305
    14  H   -0.002259  -0.000275  -0.030654  -0.004269   0.370371  -0.027278
    15  C   -0.034370   0.001614   0.192967  -0.034661  -0.054847  -0.003595
    16  O   -0.009157   0.027795  -0.108365   0.002581  -0.001611   0.002609
    17  N    0.003544   0.001759  -0.152913   0.003753   0.002951  -0.000007
    18  H    0.000020  -0.000043   0.001269   0.003001  -0.000132  -0.000000
    19  C   -0.000120   0.000004   0.004750   0.000052  -0.000341   0.000019
    20  H    0.000001  -0.000025   0.001397  -0.000041  -0.000044  -0.000009
    21  H    0.000005   0.000000  -0.000134  -0.000009  -0.000006   0.000000
    22  H   -0.000000  -0.000000  -0.000124  -0.000005   0.000049  -0.000000
              13         14         15         16         17         18
     1  C    0.000066  -0.000658  -0.000534  -0.000021  -0.000011   0.000003
     2  H   -0.000005  -0.000012   0.000018   0.000000  -0.000004  -0.000008
     3  H   -0.000063   0.004800   0.000168  -0.000001  -0.000001   0.000000
     4  H   -0.000001  -0.000033   0.000000   0.000000   0.000000  -0.000000
     5  C    0.000018   0.001342   0.002207   0.000422  -0.000075   0.000000
     6  O   -0.000000  -0.000044  -0.000124  -0.000000   0.000000  -0.000000
     7  N    0.005813  -0.002259  -0.034370  -0.009157   0.003544   0.000020
     8  H   -0.000035  -0.000275   0.001614   0.027795   0.001759  -0.000043
     9  C   -0.030985  -0.030654   0.192967  -0.108365  -0.152913   0.001269
    10  H   -0.000255  -0.004269  -0.034661   0.002581   0.003753   0.003001
    11  C    0.344342   0.370371  -0.054847  -0.001611   0.002951  -0.000132
    12  H   -0.027305  -0.027278  -0.003595   0.002609  -0.000007  -0.000000
    13  H    0.603892  -0.028822  -0.001397  -0.000068   0.003555   0.000907
    14  H   -0.028822   0.558927   0.004270  -0.000071  -0.000032  -0.000037
    15  C   -0.001397   0.004270   4.775358   0.572271   0.073848  -0.012440
    16  O   -0.000068  -0.000071   0.572271   8.101835  -0.125846   0.002868
    17  N    0.003555  -0.000032   0.073848  -0.125846   7.445315   0.304988
    18  H    0.000907  -0.000037  -0.012440   0.002868   0.304988   0.408208
    19  C   -0.000047   0.000005  -0.033375  -0.008043   0.208504  -0.028030
    20  H   -0.000001   0.000001   0.002351   0.017753  -0.043796   0.003471
    21  H    0.000003   0.000000   0.001442   0.000449  -0.044460  -0.001270
    22  H   -0.000022  -0.000001   0.002616   0.000452  -0.045624  -0.001248
              19         20         21         22
     1  C   -0.000000   0.000000   0.000000  -0.000000
     2  H    0.000000   0.000000   0.000000  -0.000000
     3  H    0.000000   0.000000  -0.000000   0.000000
     4  H    0.000000  -0.000000   0.000000  -0.000000
     5  C   -0.000001  -0.000000  -0.000000  -0.000000
     6  O   -0.000000  -0.000000   0.000000   0.000000
     7  N   -0.000120   0.000001   0.000005  -0.000000
     8  H    0.000004  -0.000025   0.000000  -0.000000
     9  C    0.004750   0.001397  -0.000134  -0.000124
    10  H    0.000052  -0.000041  -0.000009  -0.000005
    11  C   -0.000341  -0.000044  -0.000006   0.000049
    12  H    0.000019  -0.000009   0.000000  -0.000000
    13  H   -0.000047  -0.000001   0.000003  -0.000022
    14  H    0.000005   0.000001   0.000000  -0.000001
    15  C   -0.033375   0.002351   0.001442   0.002616
    16  O   -0.008043   0.017753   0.000449   0.000452
    17  N    0.208504  -0.043796  -0.044460  -0.045624
    18  H   -0.028030   0.003471  -0.001270  -0.001248
    19  C    4.963949   0.381344   0.381713   0.380584
    20  H    0.381344   0.479343  -0.024781  -0.025056
    21  H    0.381713  -0.024781   0.566961  -0.039043
    22  H    0.380584  -0.025056  -0.039043   0.570224
 Mulliken charges:
               1
     1  C   -0.485671
     2  H    0.157857
     3  H    0.152094
     4  H    0.182168
     5  C    0.502057
     6  O   -0.460359
     7  N   -0.619962
     8  H    0.350191
     9  C   -0.018833
    10  H    0.143266
    11  C   -0.382955
    12  H    0.168160
    13  H    0.130409
    14  H    0.154732
    15  C    0.546213
    16  O   -0.475850
    17  N   -0.635446
    18  H    0.318472
    19  C   -0.250967
    20  H    0.208092
    21  H    0.159131
    22  H    0.157201
 Sum of Mulliken charges =  -0.00000
 Mulliken charges with hydrogens summed into heavy atoms:
               1
     1  C    0.006448
     5  C    0.502057
     6  O   -0.460359
     7  N   -0.269772
     9  C    0.124434
    11  C    0.070346
    15  C    0.546213
    16  O   -0.475850
    17  N   -0.316973
    19  C    0.273457
 Electronic spatial extent (au):  <R**2>=           1982.9690
 Charge=             -0.0000 electrons
 Dipole moment (field-independent basis, Debye):
    X=              4.6614    Y=              5.7294    Z=             -2.1749  Tot=              7.6997
 Quadrupole moment (field-independent basis, Debye-Ang):
   XX=            -65.0728   YY=            -64.3056   ZZ=            -58.8391
   XY=             -4.9046   XZ=             -2.5047   YZ=              0.2462
 Traceless Quadrupole moment (field-independent basis, Debye-Ang):
   XX=             -2.3336   YY=             -1.5664   ZZ=              3.9001
   XY=             -4.9046   XZ=             -2.5047   YZ=              0.2462
 Octapole moment (field-independent basis, Debye-Ang**2):
  XXX=             84.7914  YYY=              4.3153  ZZZ=             -0.5928  XYY=              9.1709
  XXY=             34.6758  XXZ=            -17.1449  XZZ=             -0.3494  YZZ=              0.5030
  YYZ=             -3.0934  XYZ=              0.8487
 Hexadecapole moment (field-independent basis, Debye-Ang**3):
 XXXX=          -1912.3059 YYYY=           -398.6418 ZZZZ=           -240.2369 XXXY=           -101.3703
 XXXZ=            -11.1493 YYYX=              5.3920 YYYZ=             -3.7741 ZZZX=             -5.4647
 ZZZY=             -6.4797 XXYY=           -417.9363 XXZZ=           -347.1866 YYZZ=           -105.7632
 XXYZ=             -0.7729 YYXZ=            -11.0940 ZZXY=              7.4256
 N-N= 5.453096094284D+02 E-N=-2.247326144487D+03  KE= 4.928746756397D+02
 No NMR shielding tensors so no spin-rotation constants.
 Leave Link  601 at Sat Jul 18 16:52:50 2020, MaxMem=   104857600 cpu:               0.1 elap:               0.1
 (Enter /opt/g16/g16/l9999.exe)
 1\1\GINC-VEDA\FOpt\RB3LYP\6-31G\C6H12N2O2\HIRANO\18-Jul-2020\0\\#p opt
  rb3lyp/6-31g geom=connectivity\\ACE+ALA+NME\\0,1\C,-2.6519598805,1.31
 58699102,-1.149616302\H,-2.0701154592,1.4254672249,-2.0735460912\H,-2.
 4191603634,2.1685876857,-0.5022753305\H,-3.7122508626,1.3408231825,-1.
 4016168395\C,-2.3667664436,-0.015210116,-0.4755589406\O,-3.2485008527,
 -0.8960865629,-0.3714456458\N,-1.095216705,-0.2279213722,-0.0026171548
 \H,-0.8989103258,-1.141296593,0.3963060127\C,0.0378970559,0.6899671474
 ,-0.0181126671\H,-0.0001393682,1.3015928389,-0.9281003813\C,0.06625635
 38,1.6178754066,1.2221020298\H,0.1394479815,1.0138036039,2.1316986726\
 H,0.9203392854,2.3040390362,1.1871417006\H,-0.852558542,2.2095251212,1
 .274977647\C,1.3129677303,-0.1701294141,-0.0424064808\O,1.319883979,-1
 .3231541261,0.4463068676\N,2.4170522042,0.4225856996,-0.5797363994\H,2
 .332419559,1.3439541905,-0.9835739408\C,3.7235397164,-0.2354821911,-0.
 6146106194\H,3.6094460773,-1.2157189859,-0.149995453\H,4.0690440473,-0
 .3667500695,-1.6455239873\H,4.4697355727,0.3417475932,-0.0580618669\\V
 ersion=ES64L-G16RevA.03\State=1-A\HF=-495.698043\RMSD=5.553e-09\RMSF=5
 .720e-06\Dipole=2.0101361,2.1919856,-0.5754163\Quadrupole=-1.971843,-0
 .7170411,2.6888841,-3.4118793,-2.3872636,-0.1692542\PG=C01 [X(C6H12N2O
 2)]\\@


 MANHOOD BEGINS BY TRYING TO SHAVE FACE,
 AND ENDS BY TRYING TO SAVE FACE.
 Job cpu time:       0 days  0 hours 14 minutes 13.0 seconds.
 Elapsed time:       0 days  0 hours 14 minutes 12.2 seconds.
 File lengths (MBytes):  RWF=     10 Int=      0 D2E=      0 Chk=      2 Scr=      1
 Normal termination of Gaussian 16 at Sat Jul 18 16:52:50 2020.
