 Entering Gaussian System, Link 0=/opt/g16/g16/g16
 Initial command:
 /opt/g16/g16/l1.exe "/tmp/scratch/Gau-26699.inp" -scrdir="/tmp/scratch/"
 Entering Link 1 = /opt/g16/g16/l1.exe PID=     26700.
  
 Copyright (c) 1988,1990,1992,1993,1995,1998,2003,2009,2016,
            Gaussian, Inc.  All Rights Reserved.
  
 This is part of the Gaussian(R) 16 program.  It is based on
 the Gaussian(R) 09 system (copyright 2009, Gaussian, Inc.),
 the Gaussian(R) 03 system (copyright 2003, Gaussian, Inc.),
 the Gaussian(R) 98 system (copyright 1998, Gaussian, Inc.),
 the Gaussian(R) 94 system (copyright 1995, Gaussian, Inc.),
 the Gaussian 92(TM) system (copyright 1992, Gaussian, Inc.),
 the Gaussian 90(TM) system (copyright 1990, Gaussian, Inc.),
 the Gaussian 88(TM) system (copyright 1988, Gaussian, Inc.),
 the Gaussian 86(TM) system (copyright 1986, Carnegie Mellon
 University), and the Gaussian 82(TM) system (copyright 1983,
 Carnegie Mellon University). Gaussian is a federally registered
 trademark of Gaussian, Inc.
  
 This software contains proprietary and confidential information,
 including trade secrets, belonging to Gaussian, Inc.
  
 This software is provided under written license and may be
 used, copied, transmitted, or stored only in accord with that
 written license.
  
 The following legend is applicable only to US Government
 contracts under FAR:
  
                    RESTRICTED RIGHTS LEGEND
  
 Use, reproduction and disclosure by the US Government is
 subject to restrictions as set forth in subparagraphs (a)
 and (c) of the Commercial Computer Software - Restricted
 Rights clause in FAR 52.227-19.
  
 Gaussian, Inc.
 340 Quinnipiac St., Bldg. 40, Wallingford CT 06492
  
  
 ---------------------------------------------------------------
 Warning -- This program may not be used in any manner that
 competes with the business of Gaussian, Inc. or will provide
 assistance to any competitor of Gaussian, Inc.  The licensee
 of this program is prohibited from giving any competitor of
 Gaussian, Inc. access to this program.  By using this program,
 the user acknowledges that Gaussian, Inc. is engaged in the
 business of creating and licensing software in the field of
 computational chemistry and represents and warrants to the
 licensee that it is not a competitor of Gaussian, Inc. and that
 it will not use this program in any manner prohibited above.
 ---------------------------------------------------------------
  

 Cite this work as:
 Gaussian 16, Revision A.03,
 M. J. Frisch, G. W. Trucks, H. B. Schlegel, G. E. Scuseria, 
 M. A. Robb, J. R. Cheeseman, G. Scalmani, V. Barone, 
 G. A. Petersson, H. Nakatsuji, X. Li, M. Caricato, A. V. Marenich, 
 J. Bloino, B. G. Janesko, R. Gomperts, B. Mennucci, H. P. Hratchian, 
 J. V. Ortiz, A. F. Izmaylov, J. L. Sonnenberg, D. Williams-Young, 
 F. Ding, F. Lipparini, F. Egidi, J. Goings, B. Peng, A. Petrone, 
 T. Henderson, D. Ranasinghe, V. G. Zakrzewski, J. Gao, N. Rega, 
 G. Zheng, W. Liang, M. Hada, M. Ehara, K. Toyota, R. Fukuda, 
 J. Hasegawa, M. Ishida, T. Nakajima, Y. Honda, O. Kitao, H. Nakai, 
 T. Vreven, K. Throssell, J. A. Montgomery, Jr., J. E. Peralta, 
 F. Ogliaro, M. J. Bearpark, J. J. Heyd, E. N. Brothers, K. N. Kudin, 
 V. N. Staroverov, T. A. Keith, R. Kobayashi, J. Normand, 
 K. Raghavachari, A. P. Rendell, J. C. Burant, S. S. Iyengar, 
 J. Tomasi, M. Cossi, J. M. Millam, M. Klene, C. Adamo, R. Cammi, 
 J. W. Ochterski, R. L. Martin, K. Morokuma, O. Farkas, 
 J. B. Foresman, and D. J. Fox, Gaussian, Inc., Wallingford CT, 2016.
 
 ******************************************
 Gaussian 16:  ES64L-G16RevA.03 25-Dec-2016
                18-Jul-2020 
 ******************************************
 -------------------------------------
 #p opt rb3lyp/6-31g geom=connectivity
 -------------------------------------
 1/18=20,19=15,26=3,38=1,57=2/1,3;
 2/9=110,12=2,17=6,18=5,40=1/2;
 3/5=1,6=6,11=2,25=1,30=1,71=1,74=-5,116=1/1,2,3;
 4//1;
 5/5=2,38=5/2;
 6/7=2,8=2,9=2,10=2,28=1/1;
 7//1,2,3,16;
 1/18=20,19=15,26=3/3(2);
 2/9=110/2;
 99//99;
 2/9=110/2;
 3/5=1,6=6,11=2,25=1,30=1,71=1,74=-5,116=1/1,2,3;
 4/5=5,16=3,69=1/1;
 5/5=2,38=5/2;
 7//1,2,3,16;
 1/18=20,19=15,26=3/3(-5);
 2/9=110/2;
 6/7=2,8=2,9=2,10=2,19=2,28=1/1;
 99/9=1/99;
 Leave Link    1 at Sat Jul 18 16:38:16 2020, MaxMem=           0 cpu:               0.0 elap:               0.0
 (Enter /opt/g16/g16/l101.exe)
 -----------
 ACE+ALA+NME
 -----------
 Symbolic Z-matrix:
 Charge =  0 Multiplicity = 1
 C                    -2.85089  -0.62307  -1.6703 
 H                    -2.8974   -1.71124  -1.53636 
 H                    -2.19012  -0.4166   -2.51951 
 H                    -3.85168  -0.25851  -1.9024 
 C                    -2.38917   0.06764  -0.39861 
 O                    -3.14725   0.82739   0.24364 
 N                    -1.11222  -0.19014   0.03607 
 H                    -0.44742  -0.52025  -0.65745 
 C                    -0.56744  -0.0298    1.37935 
 H                    -1.03268   0.83947   1.86051 
 C                    -0.78818  -1.28333   2.26223 
 H                    -0.29599  -2.14689   1.80437 
 H                    -0.37869  -1.13917   3.26875 
 H                    -1.85647  -1.50272   2.35009 
 C                     0.94135   0.22775   1.22488 
 O                     1.5748   -0.23114   0.24693 
 N                     1.52768   0.93469   2.23264 
 H                     0.95078   1.30068   2.97584 
 C                     2.96537   1.20417   2.27021 
 H                     3.40832   0.74488   1.38557 
 H                     3.16332   2.28115   2.25046 
 H                     3.42333   0.77285   3.16687 
 
 ITRead=  0  0  0  0  0  0  0  0  0  0  0  0  0  0  0  0  0  0  0  0
 ITRead=  0  0
 MicOpt= -1 -1 -1 -1 -1 -1 -1 -1 -1 -1 -1 -1 -1 -1 -1 -1 -1 -1 -1 -1
 MicOpt= -1 -1
 NAtoms=     22 NQM=       22 NQMF=       0 NMMI=      0 NMMIF=      0
                NMic=       0 NMicF=      0.
                    Isotopes and Nuclear Properties:
 (Nuclear quadrupole moments (NQMom) in fm**2, nuclear magnetic moments (NMagM)
  in nuclear magnetons)

  Atom         1           2           3           4           5           6           7           8           9          10
 IAtWgt=          12           1           1           1          12          16          14           1          12           1
 AtmWgt=  12.0000000   1.0078250   1.0078250   1.0078250  12.0000000  15.9949146  14.0030740   1.0078250  12.0000000   1.0078250
 NucSpn=           0           1           1           1           0           0           2           1           0           1
 AtZEff=  -0.0000000  -0.0000000  -0.0000000  -0.0000000  -0.0000000  -0.0000000  -0.0000000  -0.0000000  -0.0000000  -0.0000000
 NQMom=    0.0000000   0.0000000   0.0000000   0.0000000   0.0000000   0.0000000   2.0440000   0.0000000   0.0000000   0.0000000
 NMagM=    0.0000000   2.7928460   2.7928460   2.7928460   0.0000000   0.0000000   0.4037610   2.7928460   0.0000000   2.7928460
 AtZNuc=   6.0000000   1.0000000   1.0000000   1.0000000   6.0000000   8.0000000   7.0000000   1.0000000   6.0000000   1.0000000

  Atom        11          12          13          14          15          16          17          18          19          20
 IAtWgt=          12           1           1           1          12          16          14           1          12           1
 AtmWgt=  12.0000000   1.0078250   1.0078250   1.0078250  12.0000000  15.9949146  14.0030740   1.0078250  12.0000000   1.0078250
 NucSpn=           0           1           1           1           0           0           2           1           0           1
 AtZEff=  -0.0000000  -0.0000000  -0.0000000  -0.0000000  -0.0000000  -0.0000000  -0.0000000  -0.0000000  -0.0000000  -0.0000000
 NQMom=    0.0000000   0.0000000   0.0000000   0.0000000   0.0000000   0.0000000   2.0440000   0.0000000   0.0000000   0.0000000
 NMagM=    0.0000000   2.7928460   2.7928460   2.7928460   0.0000000   0.0000000   0.4037610   2.7928460   0.0000000   2.7928460
 AtZNuc=   6.0000000   1.0000000   1.0000000   1.0000000   6.0000000   8.0000000   7.0000000   1.0000000   6.0000000   1.0000000

  Atom        21          22
 IAtWgt=           1           1
 AtmWgt=   1.0078250   1.0078250
 NucSpn=           1           1
 AtZEff=  -0.0000000  -0.0000000
 NQMom=    0.0000000   0.0000000
 NMagM=    2.7928460   2.7928460
 AtZNuc=   1.0000000   1.0000000
 Leave Link  101 at Sat Jul 18 16:38:16 2020, MaxMem=   104857600 cpu:               0.3 elap:               0.3
 (Enter /opt/g16/g16/l103.exe)

 GradGradGradGradGradGradGradGradGradGradGradGradGradGradGradGradGradGrad
 Berny optimization.
 Initialization pass.
                           ----------------------------
                           !    Initial Parameters    !
                           ! (Angstroms and Degrees)  !
 --------------------------                            --------------------------
 ! Name  Definition              Value          Derivative Info.                !
 --------------------------------------------------------------------------------
 ! R1    R(1,2)                  1.0974         estimate D2E/DX2                !
 ! R2    R(1,3)                  1.0956         estimate D2E/DX2                !
 ! R3    R(1,4)                  1.0901         estimate D2E/DX2                !
 ! R4    R(1,5)                  1.519          estimate D2E/DX2                !
 ! R5    R(5,6)                  1.2508         estimate D2E/DX2                !
 ! R6    R(5,7)                  1.3733         estimate D2E/DX2                !
 ! R7    R(7,8)                  1.0158         estimate D2E/DX2                !
 ! R8    R(7,9)                  1.4584         estimate D2E/DX2                !
 ! R9    R(9,10)                 1.0971         estimate D2E/DX2                !
 ! R10   R(9,11)                 1.549          estimate D2E/DX2                !
 ! R11   R(9,15)                 1.5384         estimate D2E/DX2                !
 ! R12   R(11,12)                1.0944         estimate D2E/DX2                !
 ! R13   R(11,13)                1.0961         estimate D2E/DX2                !
 ! R14   R(11,14)                1.0941         estimate D2E/DX2                !
 ! R15   R(15,16)                1.2523         estimate D2E/DX2                !
 ! R16   R(15,17)                1.3635         estimate D2E/DX2                !
 ! R17   R(17,18)                1.0095         estimate D2E/DX2                !
 ! R18   R(17,19)                1.4632         estimate D2E/DX2                !
 ! R19   R(19,20)                1.0908         estimate D2E/DX2                !
 ! R20   R(19,21)                1.0952         estimate D2E/DX2                !
 ! R21   R(19,22)                1.0953         estimate D2E/DX2                !
 ! A1    A(2,1,3)              107.8802         estimate D2E/DX2                !
 ! A2    A(2,1,4)              108.5844         estimate D2E/DX2                !
 ! A3    A(2,1,5)              111.1975         estimate D2E/DX2                !
 ! A4    A(3,1,4)              109.0043         estimate D2E/DX2                !
 ! A5    A(3,1,5)              112.3261         estimate D2E/DX2                !
 ! A6    A(4,1,5)              107.7724         estimate D2E/DX2                !
 ! A7    A(1,5,6)              121.4562         estimate D2E/DX2                !
 ! A8    A(1,5,7)              117.5328         estimate D2E/DX2                !
 ! A9    A(6,5,7)              121.0017         estimate D2E/DX2                !
 ! A10   A(5,7,8)              116.9641         estimate D2E/DX2                !
 ! A11   A(5,7,9)              128.187          estimate D2E/DX2                !
 ! A12   A(8,7,9)              114.8405         estimate D2E/DX2                !
 ! A13   A(7,9,10)             109.4307         estimate D2E/DX2                !
 ! A14   A(7,9,11)             112.5053         estimate D2E/DX2                !
 ! A15   A(7,9,15)             106.9944         estimate D2E/DX2                !
 ! A16   A(10,9,11)            109.317          estimate D2E/DX2                !
 ! A17   A(10,9,15)            109.1047         estimate D2E/DX2                !
 ! A18   A(11,9,15)            109.4183         estimate D2E/DX2                !
 ! A19   A(9,11,12)            109.6346         estimate D2E/DX2                !
 ! A20   A(9,11,13)            111.3268         estimate D2E/DX2                !
 ! A21   A(9,11,14)            110.3137         estimate D2E/DX2                !
 ! A22   A(12,11,13)           108.6595         estimate D2E/DX2                !
 ! A23   A(12,11,14)           108.3306         estimate D2E/DX2                !
 ! A24   A(13,11,14)           108.5049         estimate D2E/DX2                !
 ! A25   A(9,15,16)            120.8747         estimate D2E/DX2                !
 ! A26   A(9,15,17)            115.7428         estimate D2E/DX2                !
 ! A27   A(16,15,17)           123.3438         estimate D2E/DX2                !
 ! A28   A(15,17,18)           119.1008         estimate D2E/DX2                !
 ! A29   A(15,17,19)           122.4787         estimate D2E/DX2                !
 ! A30   A(18,17,19)           118.4133         estimate D2E/DX2                !
 ! A31   A(17,19,20)           107.4959         estimate D2E/DX2                !
 ! A32   A(17,19,21)           110.9923         estimate D2E/DX2                !
 ! A33   A(17,19,22)           111.0576         estimate D2E/DX2                !
 ! A34   A(20,19,21)           109.0289         estimate D2E/DX2                !
 ! A35   A(20,19,22)           109.1672         estimate D2E/DX2                !
 ! A36   A(21,19,22)           109.0515         estimate D2E/DX2                !
 ! D1    D(2,1,5,6)           -114.1424         estimate D2E/DX2                !
 ! D2    D(2,1,5,7)             64.762          estimate D2E/DX2                !
 ! D3    D(3,1,5,6)            124.8428         estimate D2E/DX2                !
 ! D4    D(3,1,5,7)            -56.2527         estimate D2E/DX2                !
 ! D5    D(4,1,5,6)              4.7568         estimate D2E/DX2                !
 ! D6    D(4,1,5,7)           -176.3387         estimate D2E/DX2                !
 ! D7    D(1,5,7,8)             22.5375         estimate D2E/DX2                !
 ! D8    D(1,5,7,9)           -158.5825         estimate D2E/DX2                !
 ! D9    D(6,5,7,8)           -158.5528         estimate D2E/DX2                !
 ! D10   D(6,5,7,9)             20.3272         estimate D2E/DX2                !
 ! D11   D(5,7,9,10)           -34.6332         estimate D2E/DX2                !
 ! D12   D(5,7,9,11)            87.0918         estimate D2E/DX2                !
 ! D13   D(5,7,9,15)          -152.7143         estimate D2E/DX2                !
 ! D14   D(8,7,9,10)           144.2668         estimate D2E/DX2                !
 ! D15   D(8,7,9,11)           -94.0082         estimate D2E/DX2                !
 ! D16   D(8,7,9,15)            26.1857         estimate D2E/DX2                !
 ! D17   D(7,9,11,12)           60.1769         estimate D2E/DX2                !
 ! D18   D(7,9,11,13)         -179.561          estimate D2E/DX2                !
 ! D19   D(7,9,11,14)          -59.0408         estimate D2E/DX2                !
 ! D20   D(10,9,11,12)        -178.0334         estimate D2E/DX2                !
 ! D21   D(10,9,11,13)         -57.7714         estimate D2E/DX2                !
 ! D22   D(10,9,11,14)          62.7489         estimate D2E/DX2                !
 ! D23   D(15,9,11,12)         -58.607          estimate D2E/DX2                !
 ! D24   D(15,9,11,13)          61.655          estimate D2E/DX2                !
 ! D25   D(15,9,11,14)        -177.8247         estimate D2E/DX2                !
 ! D26   D(7,9,15,16)          -28.6058         estimate D2E/DX2                !
 ! D27   D(7,9,15,17)          153.5806         estimate D2E/DX2                !
 ! D28   D(10,9,15,16)        -146.8996         estimate D2E/DX2                !
 ! D29   D(10,9,15,17)          35.2869         estimate D2E/DX2                !
 ! D30   D(11,9,15,16)          93.5432         estimate D2E/DX2                !
 ! D31   D(11,9,15,17)         -84.2703         estimate D2E/DX2                !
 ! D32   D(9,15,17,18)          -4.1946         estimate D2E/DX2                !
 ! D33   D(9,15,17,19)         176.795          estimate D2E/DX2                !
 ! D34   D(16,15,17,18)        178.0519         estimate D2E/DX2                !
 ! D35   D(16,15,17,19)         -0.9586         estimate D2E/DX2                !
 ! D36   D(15,17,19,20)         -0.1482         estimate D2E/DX2                !
 ! D37   D(15,17,19,21)        119.0029         estimate D2E/DX2                !
 ! D38   D(15,17,19,22)       -119.5053         estimate D2E/DX2                !
 ! D39   D(18,17,19,20)       -179.1652         estimate D2E/DX2                !
 ! D40   D(18,17,19,21)        -60.014          estimate D2E/DX2                !
 ! D41   D(18,17,19,22)         61.4777         estimate D2E/DX2                !
 --------------------------------------------------------------------------------
 Trust Radius=3.00D-01 FncErr=1.00D-07 GrdErr=1.00D-06 EigMax=2.50D+02 EigMin=1.00D-04
 Number of steps in this run=    108 maximum allowed number of steps=    132.
 GradGradGradGradGradGradGradGradGradGradGradGradGradGradGradGradGradGrad

 Leave Link  103 at Sat Jul 18 16:38:16 2020, MaxMem=   104857600 cpu:               0.0 elap:               0.0
 (Enter /opt/g16/g16/l202.exe)
                          Input orientation:                          
 ---------------------------------------------------------------------
 Center     Atomic      Atomic             Coordinates (Angstroms)
 Number     Number       Type             X           Y           Z
 ---------------------------------------------------------------------
      1          6           0       -2.850894   -0.623066   -1.670302
      2          1           0       -2.897398   -1.711241   -1.536356
      3          1           0       -2.190116   -0.416605   -2.519509
      4          1           0       -3.851678   -0.258510   -1.902402
      5          6           0       -2.389169    0.067639   -0.398608
      6          8           0       -3.147250    0.827394    0.243636
      7          7           0       -1.112218   -0.190143    0.036066
      8          1           0       -0.447417   -0.520250   -0.657452
      9          6           0       -0.567441   -0.029802    1.379351
     10          1           0       -1.032678    0.839467    1.860506
     11          6           0       -0.788175   -1.283334    2.262233
     12          1           0       -0.295993   -2.146894    1.804374
     13          1           0       -0.378690   -1.139170    3.268752
     14          1           0       -1.856471   -1.502720    2.350090
     15          6           0        0.941354    0.227751    1.224878
     16          8           0        1.574798   -0.231143    0.246928
     17          7           0        1.527684    0.934688    2.232640
     18          1           0        0.950779    1.300681    2.975836
     19          6           0        2.965368    1.204172    2.270209
     20          1           0        3.408320    0.744879    1.385567
     21          1           0        3.163322    2.281152    2.250457
     22          1           0        3.423335    0.772852    3.166875
 ---------------------------------------------------------------------
                    Distance matrix (angstroms):
                    1          2          3          4          5
     1  C    0.000000
     2  H    1.097373   0.000000
     3  H    1.095630   1.772828   0.000000
     4  H    1.090111   1.776251   1.779495   0.000000
     5  C    1.519036   2.171907   2.184567   2.122900   0.000000
     6  O    2.419674   3.110541   3.177830   2.506170   1.250757
     7  N    2.474290   2.823671   2.782824   3.356632   1.373316
     8  H    2.610199   2.862401   2.552449   3.634199   2.045242
     9  C    3.855711   4.093566   4.240731   4.648486   2.547415
    10  H    4.232200   4.639177   4.701267   4.828229   2.745793
    11  C    4.489498   4.365913   5.057836   5.270626   3.386500
    12  H    4.574160   4.256475   5.027680   5.472575   3.760142
    13  H    5.547289   5.455293   6.107973   6.291109   4.352924
    14  H    4.233937   4.028830   5.000396   4.859280   3.210161
    15  C    4.846349   5.110785   4.923589   5.743648   3.708601
    16  O    4.839020   5.036995   4.675697   5.836695   4.027284
    17  N    6.068896   6.386519   6.183118   6.889110   4.797601
    18  H    6.303976   6.651317   6.558438   7.020817   4.905355
    19  C    7.259155   7.573744   7.221311   8.125407   6.089774
    20  H    7.098406   7.371040   6.923955   8.032752   6.103508
    21  H    7.744523   8.186054   7.660925   8.538522   6.538145
    22  H    8.044427   8.260918   8.078403   8.926763   6.855304
                    6          7          8          9         10
     6  O    0.000000
     7  N    2.284693   0.000000
     8  H    3.149159   1.015824   0.000000
     9  C    2.946192   1.458392   2.098455   0.000000
    10  H    2.661922   2.096427   2.920869   1.097080   0.000000
    11  C    3.754349   2.501178   3.036935   1.549047   2.174270
    12  H    4.405900   2.760799   2.954571   2.176329   3.076395
    13  H    4.547926   3.448040   3.975282   2.199128   2.515127
    14  H    3.395982   2.762513   3.463523   2.184815   2.530645
    15  C    4.247245   2.409370   2.455882   1.538395   2.162180
    16  O    4.839240   2.695588   2.234018   2.431483   3.247888
    17  N    5.081600   3.613760   3.790844   2.459246   2.589017
    18  H    4.948005   3.888542   4.297851   2.573701   2.321805
    19  C    6.450818   4.854092   4.815800   3.846695   4.035497
    20  H    6.654796   4.809436   4.543257   4.050537   4.467324
    21  H    6.779680   5.412122   5.416754   4.474140   4.453868
    22  H    7.191723   5.594690   5.592880   4.445873   4.644038
                   11         12         13         14         15
    11  C    0.000000
    12  H    1.094355   0.000000
    13  H    1.096149   1.779536   0.000000
    14  H    1.094123   1.774220   1.777623   0.000000
    15  C    2.520070   2.739668   2.790773   3.476845   0.000000
    16  O    3.279055   3.097676   3.711072   4.220640   1.252287
    17  N    3.206821   3.606294   3.001446   4.172200   1.363498
    18  H    3.195360   3.848706   2.793951   4.016374   2.053563
    19  C    4.502981   4.699268   4.203697   5.530260   2.478456
    20  H    4.742654   4.718017   4.630062   5.805172   2.525701
    21  H    5.321657   5.636794   5.028060   6.286965   3.194591
    22  H    4.773164   4.920846   4.256948   5.807040   3.198236
                   16         17         18         19         20
    16  O    0.000000
    17  N    2.303136   0.000000
    18  H    3.191054   1.009511   0.000000
    19  C    2.843850   1.463204   2.136772   0.000000
    20  H    2.368739   2.071316   2.979493   1.090756   0.000000
    21  H    3.584574   2.118631   2.526430   1.095199   1.779942
    22  H    3.598776   2.119546   2.535475   1.095345   1.781591
                   21         22
    21  H    0.000000
    22  H    1.783927   0.000000
 Stoichiometry    C6H12N2O2
 Framework group  C1[X(C6H12N2O2)]
 Deg. of freedom    60
 Full point group                 C1      NOp   1
 Largest Abelian subgroup         C1      NOp   1
 Largest concise Abelian subgroup C1      NOp   1
                         Standard orientation:                         
 ---------------------------------------------------------------------
 Center     Atomic      Atomic             Coordinates (Angstroms)
 Number     Number       Type             X           Y           Z
 ---------------------------------------------------------------------
      1          6           0       -3.445284   -0.934579    0.283068
      2          1           0       -3.592326   -0.653099    1.333485
      3          1           0       -3.245742   -2.011317    0.248108
      4          1           0       -4.364533   -0.725947   -0.264469
      5          6           0       -2.331760   -0.120395   -0.353044
      6          8           0       -2.562581    0.692829   -1.274880
      7          7           0       -1.060346   -0.292078    0.136882
      8          1           0       -0.867289   -1.163685    0.621576
      9          6           0        0.075979    0.616222    0.033622
     10          1           0        0.038955    1.138962   -0.930201
     11          6           0        0.109023    1.657254    1.180229
     12          1           0        0.181351    1.141836    2.142896
     13          1           0        0.965347    2.334104    1.079600
     14          1           0       -0.807779    2.254390    1.177648
     15          6           0        1.348141   -0.246980    0.089709
     16          8           0        1.358389   -1.337125    0.705909
     17          7           0        2.446292    0.275968   -0.526499
     18          1           0        2.358570    1.146091   -1.030783
     19          6           0        3.750278   -0.387426   -0.504223
     20          1           0        3.640104   -1.307969    0.070416
     21          1           0        4.080990   -0.636787   -1.518082
     22          1           0        4.505991    0.245981   -0.027280
 ---------------------------------------------------------------------
 Rotational constants (GHZ):           2.7152231           0.6255972           0.5966676
 Leave Link  202 at Sat Jul 18 16:38:16 2020, MaxMem=   104857600 cpu:               0.0 elap:               0.0
 (Enter /opt/g16/g16/l301.exe)
 Standard basis: 6-31G (6D, 7F)
 Ernie: Thresh=  0.10000D-02 Tol=  0.10000D-05 Strict=F.
 There are   114 symmetry adapted cartesian basis functions of A   symmetry.
 There are   114 symmetry adapted basis functions of A   symmetry.
   114 basis functions,   268 primitive gaussians,   114 cartesian basis functions
    39 alpha electrons       39 beta electrons
       nuclear repulsion energy       543.3136533985 Hartrees.
 IExCor=  402 DFT=T Ex+Corr=B3LYP ExCW=0 ScaHFX=  0.200000
 ScaDFX=  0.800000  0.720000  1.000000  0.810000 ScalE2=  1.000000  1.000000
 IRadAn=      5 IRanWt=     -1 IRanGd=            0 ICorTp=0 IEmpDi=  4
 NAtoms=   22 NActive=   22 NUniq=   22 SFac= 1.00D+00 NAtFMM=   60 NAOKFM=F Big=F
 Integral buffers will be    131072 words long.
 Raffenetti 2 integral format.
 Two-electron integral symmetry is turned on.
 Leave Link  301 at Sat Jul 18 16:38:16 2020, MaxMem=   104857600 cpu:               0.1 elap:               0.1
 (Enter /opt/g16/g16/l302.exe)
 NPDir=0 NMtPBC=     1 NCelOv=     1 NCel=       1 NClECP=     1 NCelD=      1
         NCelK=      1 NCelE2=     1 NClLst=     1 CellRange=     0.0.
 One-electron integrals computed using PRISM.
 One-electron integral symmetry used in STVInt
 NBasis=   114 RedAO= T EigKep=  4.00D-03  NBF=   114
 NBsUse=   114 1.00D-06 EigRej= -1.00D+00 NBFU=   114
 Precomputing XC quadrature grid using
 IXCGrd= 4 IRadAn=           5 IRanWt=          -1 IRanGd=           0 AccXCQ= 0.00D+00.
 Generated NRdTot=       0 NPtTot=           0 NUsed=           0 NTot=          32
 NSgBfM=   114   114   114   114   114 MxSgAt=    22 MxSgA2=    22.
 Leave Link  302 at Sat Jul 18 16:38:18 2020, MaxMem=   104857600 cpu:               1.3 elap:               1.3
 (Enter /opt/g16/g16/l303.exe)
 DipDrv:  MaxL=1.
 Leave Link  303 at Sat Jul 18 16:38:18 2020, MaxMem=   104857600 cpu:               0.1 elap:               0.1
 (Enter /opt/g16/g16/l401.exe)
 ExpMin= 1.61D-01 ExpMax= 5.48D+03 ExpMxC= 8.25D+02 IAcc=3 IRadAn=         5 AccDes= 0.00D+00
 Harris functional with IExCor=  402 and IRadAn=       5 diagonalized for initial guess.
 HarFok:  IExCor=  402 AccDes= 0.00D+00 IRadAn=         5 IDoV= 1 UseB2=F ITyADJ=14
 ICtDFT=  3500011 ScaDFX=  1.000000  1.000000  1.000000  1.000000
 FoFCou: FMM=F IPFlag=           0 FMFlag=      100000 FMFlg1=           0
         NFxFlg=           0 DoJE=T BraDBF=F KetDBF=T FulRan=T
         wScrn=  0.000000 ICntrl=       500 IOpCl=  0 I1Cent=   200000004 NGrid=           0
         NMat0=    1 NMatS0=      1 NMatT0=    0 NMatD0=    1 NMtDS0=    0 NMtDT0=    0
 Petite list used in FoFCou.
 Harris En= -495.746820816816    
 JPrj=0 DoOrth=F DoCkMO=F.
 Leave Link  401 at Sat Jul 18 16:38:24 2020, MaxMem=   104857600 cpu:               5.8 elap:               5.8
 (Enter /opt/g16/g16/l502.exe)
 Keep R1 ints in memory in canonical form, NReq=22427569.
 FoFCou: FMM=F IPFlag=           0 FMFlag=           0 FMFlg1=           0
         NFxFlg=           0 DoJE=F BraDBF=F KetDBF=F FulRan=T
         wScrn=  0.000000 ICntrl=       600 IOpCl=  0 I1Cent=           0 NGrid=           0
         NMat0=    1 NMatS0=   6555 NMatT0=    0 NMatD0=    1 NMtDS0=    0 NMtDT0=    0
 Symmetry not used in FoFCou.
 Two-electron integral symmetry not used.
 Closed shell SCF:
 Using DIIS extrapolation, IDIIS=  1040.
 NGot=   104857600 LenX=    83341928 LenY=    83328491
 Requested convergence on RMS density matrix=1.00D-08 within 128 cycles.
 Requested convergence on MAX density matrix=1.00D-06.
 Requested convergence on             energy=1.00D-06.
 No special actions if energy rises.
 Integral accuracy reduced to 1.0D-05 until final iterations.

 Cycle   1  Pass 0  IDiag  1:
 E= -495.366116593480    
 DIIS: error= 4.20D-02 at cycle   1 NSaved=   1.
 NSaved= 1 IEnMin= 1 EnMin= -495.366116593480     IErMin= 1 ErrMin= 4.20D-02
 ErrMax= 4.20D-02  0.00D+00 EMaxC= 1.00D-01 BMatC= 3.58D-01 BMatP= 3.58D-01
 IDIUse=3 WtCom= 5.80D-01 WtEn= 4.20D-01
 Coeff-Com:  0.100D+01
 Coeff-En:   0.100D+01
 Coeff:      0.100D+01
 Gap=     0.227 Goal=   None    Shift=    0.000
 GapD=    0.227 DampG=1.000 DampE=0.500 DampFc=0.5000 IDamp=-1.
 Damping current iteration by 5.00D-01
 RMSDP=1.76D-02 MaxDP=3.62D-01              OVMax= 3.45D-01

 Cycle   2  Pass 0  IDiag  1:
 E= -495.414939848854     Delta-E=       -0.048823255374 Rises=F Damp=T
 DIIS: error= 2.03D-02 at cycle   2 NSaved=   2.
 NSaved= 2 IEnMin= 2 EnMin= -495.414939848854     IErMin= 2 ErrMin= 2.03D-02
 ErrMax= 2.03D-02  0.00D+00 EMaxC= 1.00D-01 BMatC= 8.52D-02 BMatP= 3.58D-01
 IDIUse=3 WtCom= 7.97D-01 WtEn= 2.03D-01
 Coeff-Com:  0.290D+00 0.710D+00
 Coeff-En:   0.433D+00 0.567D+00
 Coeff:      0.319D+00 0.681D+00
 Gap=     0.291 Goal=   None    Shift=    0.000
 RMSDP=5.57D-03 MaxDP=1.02D-01 DE=-4.88D-02 OVMax= 2.25D-01

 Cycle   3  Pass 0  IDiag  1:
 E= -495.639973371328     Delta-E=       -0.225033522473 Rises=F Damp=F
 DIIS: error= 1.79D-02 at cycle   3 NSaved=   3.
 NSaved= 3 IEnMin= 3 EnMin= -495.639973371328     IErMin= 3 ErrMin= 1.79D-02
 ErrMax= 1.79D-02  0.00D+00 EMaxC= 1.00D-01 BMatC= 6.28D-02 BMatP= 8.52D-02
 IDIUse=3 WtCom= 8.21D-01 WtEn= 1.79D-01
 Coeff-Com:  0.135D+00 0.451D+00 0.414D+00
 Coeff-En:   0.000D+00 0.000D+00 0.100D+01
 Coeff:      0.111D+00 0.370D+00 0.518D+00
 Gap=     0.254 Goal=   None    Shift=    0.000
 RMSDP=3.24D-03 MaxDP=4.41D-02 DE=-2.25D-01 OVMax= 9.61D-02

 Cycle   4  Pass 0  IDiag  1:
 E= -495.688642218583     Delta-E=       -0.048668847256 Rises=F Damp=F
 DIIS: error= 8.91D-03 at cycle   4 NSaved=   4.
 NSaved= 4 IEnMin= 4 EnMin= -495.688642218583     IErMin= 4 ErrMin= 8.91D-03
 ErrMax= 8.91D-03  0.00D+00 EMaxC= 1.00D-01 BMatC= 1.25D-02 BMatP= 6.28D-02
 IDIUse=3 WtCom= 9.11D-01 WtEn= 8.91D-02
 Coeff-Com:  0.416D-01 0.759D-01 0.308D+00 0.574D+00
 Coeff-En:   0.000D+00 0.000D+00 0.183D+00 0.817D+00
 Coeff:      0.379D-01 0.691D-01 0.297D+00 0.596D+00
 Gap=     0.244 Goal=   None    Shift=    0.000
 RMSDP=1.12D-03 MaxDP=1.82D-02 DE=-4.87D-02 OVMax= 3.46D-02

 Cycle   5  Pass 0  IDiag  1:
 E= -495.698879590870     Delta-E=       -0.010237372287 Rises=F Damp=F
 DIIS: error= 1.50D-03 at cycle   5 NSaved=   5.
 NSaved= 5 IEnMin= 5 EnMin= -495.698879590870     IErMin= 5 ErrMin= 1.50D-03
 ErrMax= 1.50D-03  0.00D+00 EMaxC= 1.00D-01 BMatC= 4.23D-04 BMatP= 1.25D-02
 IDIUse=3 WtCom= 9.85D-01 WtEn= 1.50D-02
 Coeff-Com:  0.833D-02-0.230D-02 0.122D+00 0.333D+00 0.539D+00
 Coeff-En:   0.000D+00 0.000D+00 0.000D+00 0.000D+00 0.100D+01
 Coeff:      0.820D-02-0.227D-02 0.120D+00 0.328D+00 0.546D+00
 Gap=     0.244 Goal=   None    Shift=    0.000
 RMSDP=1.84D-04 MaxDP=3.97D-03 DE=-1.02D-02 OVMax= 6.82D-03

 Cycle   6  Pass 0  IDiag  1:
 E= -495.699257166054     Delta-E=       -0.000377575184 Rises=F Damp=F
 DIIS: error= 3.81D-04 at cycle   6 NSaved=   6.
 NSaved= 6 IEnMin= 6 EnMin= -495.699257166054     IErMin= 6 ErrMin= 3.81D-04
 ErrMax= 3.81D-04  0.00D+00 EMaxC= 1.00D-01 BMatC= 1.89D-05 BMatP= 4.23D-04
 IDIUse=3 WtCom= 9.96D-01 WtEn= 3.81D-03
 Coeff-Com:  0.191D-02-0.595D-02 0.349D-01 0.999D-01 0.242D+00 0.627D+00
 Coeff-En:   0.000D+00 0.000D+00 0.000D+00 0.000D+00 0.000D+00 0.100D+01
 Coeff:      0.191D-02-0.592D-02 0.348D-01 0.995D-01 0.241D+00 0.629D+00
 Gap=     0.244 Goal=   None    Shift=    0.000
 RMSDP=4.46D-05 MaxDP=8.62D-04 DE=-3.78D-04 OVMax= 1.29D-03

 Cycle   7  Pass 0  IDiag  1:
 E= -495.699271916439     Delta-E=       -0.000014750385 Rises=F Damp=F
 DIIS: error= 1.65D-04 at cycle   7 NSaved=   7.
 NSaved= 7 IEnMin= 7 EnMin= -495.699271916439     IErMin= 7 ErrMin= 1.65D-04
 ErrMax= 1.65D-04  0.00D+00 EMaxC= 1.00D-01 BMatC= 2.59D-06 BMatP= 1.89D-05
 IDIUse=3 WtCom= 9.98D-01 WtEn= 1.65D-03
 Coeff-Com:  0.609D-03-0.301D-02 0.901D-02 0.241D-01 0.900D-01 0.362D+00
 Coeff-Com:  0.517D+00
 Coeff-En:   0.000D+00 0.000D+00 0.000D+00 0.000D+00 0.000D+00 0.000D+00
 Coeff-En:   0.100D+01
 Coeff:      0.608D-03-0.301D-02 0.900D-02 0.241D-01 0.898D-01 0.361D+00
 Coeff:      0.518D+00
 Gap=     0.244 Goal=   None    Shift=    0.000
 RMSDP=2.23D-05 MaxDP=4.55D-04 DE=-1.48D-05 OVMax= 6.01D-04

 Cycle   8  Pass 0  IDiag  1:
 E= -495.699273683267     Delta-E=       -0.000001766828 Rises=F Damp=F
 DIIS: error= 7.10D-05 at cycle   8 NSaved=   8.
 NSaved= 8 IEnMin= 8 EnMin= -495.699273683267     IErMin= 8 ErrMin= 7.10D-05
 ErrMax= 7.10D-05  0.00D+00 EMaxC= 1.00D-01 BMatC= 6.59D-07 BMatP= 2.59D-06
 IDIUse=1 WtCom= 1.00D+00 WtEn= 0.00D+00
 Coeff-Com:  0.252D-03-0.132D-02 0.198D-02 0.361D-02 0.332D-01 0.179D+00
 Coeff-Com:  0.375D+00 0.408D+00
 Coeff:      0.252D-03-0.132D-02 0.198D-02 0.361D-02 0.332D-01 0.179D+00
 Coeff:      0.375D+00 0.408D+00
 Gap=     0.244 Goal=   None    Shift=    0.000
 RMSDP=8.16D-06 MaxDP=1.58D-04 DE=-1.77D-06 OVMax= 2.37D-04

 Initial convergence to 1.0D-05 achieved.  Increase integral accuracy.
 Cycle   9  Pass 1  IDiag  1:
 E= -495.699273074430     Delta-E=        0.000000608837 Rises=F Damp=F
 DIIS: error= 7.50D-06 at cycle   1 NSaved=   1.
 NSaved= 1 IEnMin= 1 EnMin= -495.699273074430     IErMin= 1 ErrMin= 7.50D-06
 ErrMax= 7.50D-06  0.00D+00 EMaxC= 1.00D-01 BMatC= 1.33D-08 BMatP= 1.33D-08
 IDIUse=1 WtCom= 1.00D+00 WtEn= 0.00D+00
 Coeff-Com:  0.100D+01
 Coeff:      0.100D+01
 Gap=     0.244 Goal=   None    Shift=    0.000
 RMSDP=8.16D-06 MaxDP=1.58D-04 DE= 6.09D-07 OVMax= 7.59D-05

 Cycle  10  Pass 1  IDiag  1:
 E= -495.699273053471     Delta-E=        0.000000020959 Rises=F Damp=F
 DIIS: error= 1.71D-05 at cycle   2 NSaved=   2.
 NSaved= 2 IEnMin= 1 EnMin= -495.699273074430     IErMin= 1 ErrMin= 7.50D-06
 ErrMax= 1.71D-05  0.00D+00 EMaxC= 1.00D-01 BMatC= 4.23D-08 BMatP= 1.33D-08
 IDIUse=1 WtCom= 1.00D+00 WtEn= 0.00D+00
 Coeff-Com:  0.653D+00 0.347D+00
 Coeff:      0.653D+00 0.347D+00
 Gap=     0.244 Goal=   None    Shift=    0.000
 RMSDP=2.22D-06 MaxDP=5.07D-05 DE= 2.10D-08 OVMax= 7.36D-05

 Cycle  11  Pass 1  IDiag  1:
 E= -495.699273087648     Delta-E=       -0.000000034177 Rises=F Damp=F
 DIIS: error= 3.87D-06 at cycle   3 NSaved=   3.
 NSaved= 3 IEnMin= 3 EnMin= -495.699273087648     IErMin= 3 ErrMin= 3.87D-06
 ErrMax= 3.87D-06  0.00D+00 EMaxC= 1.00D-01 BMatC= 1.66D-09 BMatP= 1.33D-08
 IDIUse=1 WtCom= 1.00D+00 WtEn= 0.00D+00
 Coeff-Com:  0.185D+00 0.188D+00 0.627D+00
 Coeff:      0.185D+00 0.188D+00 0.627D+00
 Gap=     0.244 Goal=   None    Shift=    0.000
 RMSDP=5.41D-07 MaxDP=1.07D-05 DE=-3.42D-08 OVMax= 1.36D-05

 Cycle  12  Pass 1  IDiag  1:
 E= -495.699273088755     Delta-E=       -0.000000001107 Rises=F Damp=F
 DIIS: error= 1.42D-06 at cycle   4 NSaved=   4.
 NSaved= 4 IEnMin= 4 EnMin= -495.699273088755     IErMin= 4 ErrMin= 1.42D-06
 ErrMax= 1.42D-06  0.00D+00 EMaxC= 1.00D-01 BMatC= 2.84D-10 BMatP= 1.66D-09
 IDIUse=1 WtCom= 1.00D+00 WtEn= 0.00D+00
 Coeff-Com: -0.623D-02 0.570D-01 0.366D+00 0.583D+00
 Coeff:     -0.623D-02 0.570D-01 0.366D+00 0.583D+00
 Gap=     0.244 Goal=   None    Shift=    0.000
 RMSDP=1.58D-07 MaxDP=3.65D-06 DE=-1.11D-09 OVMax= 3.34D-06

 Cycle  13  Pass 1  IDiag  1:
 E= -495.699273088997     Delta-E=       -0.000000000242 Rises=F Damp=F
 DIIS: error= 3.16D-07 at cycle   5 NSaved=   5.
 NSaved= 5 IEnMin= 5 EnMin= -495.699273088997     IErMin= 5 ErrMin= 3.16D-07
 ErrMax= 3.16D-07  0.00D+00 EMaxC= 1.00D-01 BMatC= 1.31D-11 BMatP= 2.84D-10
 IDIUse=1 WtCom= 1.00D+00 WtEn= 0.00D+00
 Coeff-Com: -0.108D-01 0.224D-01 0.157D+00 0.299D+00 0.533D+00
 Coeff:     -0.108D-01 0.224D-01 0.157D+00 0.299D+00 0.533D+00
 Gap=     0.244 Goal=   None    Shift=    0.000
 RMSDP=5.16D-08 MaxDP=8.95D-07 DE=-2.42D-10 OVMax= 1.87D-06

 Cycle  14  Pass 1  IDiag  1:
 E= -495.699273089011     Delta-E=       -0.000000000014 Rises=F Damp=F
 DIIS: error= 1.47D-07 at cycle   6 NSaved=   6.
 NSaved= 6 IEnMin= 6 EnMin= -495.699273089011     IErMin= 6 ErrMin= 1.47D-07
 ErrMax= 1.47D-07  0.00D+00 EMaxC= 1.00D-01 BMatC= 2.06D-12 BMatP= 1.31D-11
 IDIUse=1 WtCom= 1.00D+00 WtEn= 0.00D+00
 Coeff-Com: -0.623D-02 0.956D-02 0.680D-01 0.137D+00 0.330D+00 0.462D+00
 Coeff:     -0.623D-02 0.956D-02 0.680D-01 0.137D+00 0.330D+00 0.462D+00
 Gap=     0.244 Goal=   None    Shift=    0.000
 RMSDP=1.64D-08 MaxDP=3.62D-07 DE=-1.43D-11 OVMax= 5.79D-07

 Cycle  15  Pass 1  IDiag  1:
 E= -495.699273089007     Delta-E=        0.000000000004 Rises=F Damp=F
 DIIS: error= 5.09D-08 at cycle   7 NSaved=   7.
 NSaved= 7 IEnMin= 6 EnMin= -495.699273089011     IErMin= 7 ErrMin= 5.09D-08
 ErrMax= 5.09D-08  0.00D+00 EMaxC= 1.00D-01 BMatC= 2.99D-13 BMatP= 2.06D-12
 IDIUse=1 WtCom= 1.00D+00 WtEn= 0.00D+00
 Coeff-Com: -0.249D-02 0.311D-02 0.218D-01 0.459D-01 0.147D+00 0.299D+00
 Coeff-Com:  0.485D+00
 Coeff:     -0.249D-02 0.311D-02 0.218D-01 0.459D-01 0.147D+00 0.299D+00
 Coeff:      0.485D+00
 Gap=     0.244 Goal=   None    Shift=    0.000
 RMSDP=5.96D-09 MaxDP=1.37D-07 DE= 3.64D-12 OVMax= 1.86D-07

 SCF Done:  E(RB3LYP) =  -495.699273089     A.U. after   15 cycles
            NFock= 15  Conv=0.60D-08     -V/T= 2.0058
 KE= 4.928548228615D+02 PE=-2.243669773027D+03 EE= 7.118020236778D+02
 Leave Link  502 at Sat Jul 18 16:39:23 2020, MaxMem=   104857600 cpu:              59.9 elap:              59.9
 (Enter /opt/g16/g16/l601.exe)
 Copying SCF densities to generalized density rwf, IOpCl= 0 IROHF=0.

 **********************************************************************

            Population analysis using the SCF density.

 **********************************************************************

 Orbital symmetries:
       Occupied  (A) (A) (A) (A) (A) (A) (A) (A) (A) (A) (A) (A)
                 (A) (A) (A) (A) (A) (A) (A) (A) (A) (A) (A) (A)
                 (A) (A) (A) (A) (A) (A) (A) (A) (A) (A) (A) (A)
                 (A) (A) (A)
       Virtual   (A) (A) (A) (A) (A) (A) (A) (A) (A) (A) (A) (A)
                 (A) (A) (A) (A) (A) (A) (A) (A) (A) (A) (A) (A)
                 (A) (A) (A) (A) (A) (A) (A) (A) (A) (A) (A) (A)
                 (A) (A) (A) (A) (A) (A) (A) (A) (A) (A) (A) (A)
                 (A) (A) (A) (A) (A) (A) (A) (A) (A) (A) (A) (A)
                 (A) (A) (A) (A) (A) (A) (A) (A) (A) (A) (A) (A)
                 (A) (A) (A)
 The electronic state is 1-A.
 Alpha  occ. eigenvalues --  -19.12664 -19.10245 -14.37653 -14.34565 -10.30433
 Alpha  occ. eigenvalues --  -10.28749 -10.24465 -10.22436 -10.18710 -10.18335
 Alpha  occ. eigenvalues --   -1.05459  -1.02875  -0.93936  -0.91835  -0.78844
 Alpha  occ. eigenvalues --   -0.73449  -0.72101  -0.65728  -0.60639  -0.57483
 Alpha  occ. eigenvalues --   -0.54423  -0.48604  -0.47575  -0.46731  -0.46127
 Alpha  occ. eigenvalues --   -0.44439  -0.43212  -0.42234  -0.40996  -0.40124
 Alpha  occ. eigenvalues --   -0.38802  -0.38512  -0.37175  -0.36776  -0.34410
 Alpha  occ. eigenvalues --   -0.26628  -0.26584  -0.24209  -0.23675
 Alpha virt. eigenvalues --    0.00701   0.01948   0.05959   0.09583   0.11246
 Alpha virt. eigenvalues --    0.12847   0.13416   0.14251   0.15061   0.15808
 Alpha virt. eigenvalues --    0.16457   0.16745   0.17112   0.18009   0.18250
 Alpha virt. eigenvalues --    0.20767   0.21908   0.23680   0.27455   0.32594
 Alpha virt. eigenvalues --    0.33521   0.38171   0.40152   0.50518   0.52645
 Alpha virt. eigenvalues --    0.53492   0.54168   0.55022   0.56946   0.57663
 Alpha virt. eigenvalues --    0.58059   0.60150   0.61751   0.62707   0.66443
 Alpha virt. eigenvalues --    0.67545   0.70065   0.71580   0.74213   0.77330
 Alpha virt. eigenvalues --    0.77855   0.78855   0.80308   0.84253   0.87254
 Alpha virt. eigenvalues --    0.87476   0.89913   0.90929   0.92069   0.92797
 Alpha virt. eigenvalues --    0.93775   0.94330   0.94710   0.96333   0.96376
 Alpha virt. eigenvalues --    0.97435   0.98246   0.98751   1.02356   1.04080
 Alpha virt. eigenvalues --    1.07478   1.11369   1.14249   1.17704   1.21176
 Alpha virt. eigenvalues --    1.25620   1.28741   1.37445   1.39512   1.51588
 Alpha virt. eigenvalues --    1.58841   1.63567   1.69738   1.91170   2.00135
          Condensed to atoms (all electrons):
               1          2          3          4          5          6
     1  C    5.432904   0.352977   0.342673   0.350792   0.257371  -0.102527
     2  H    0.352977   0.552457  -0.027568  -0.023263  -0.024138   0.001348
     3  H    0.342673  -0.027568   0.564363  -0.023039  -0.020877   0.002008
     4  H    0.350792  -0.023263  -0.023039   0.525876  -0.022097   0.006164
     5  C    0.257371  -0.024138  -0.020877  -0.022097   4.692167   0.592564
     6  O   -0.102527   0.001348   0.002008   0.006164   0.592564   8.092486
     7  N   -0.164914   0.003008   0.003955   0.006252   0.046838  -0.140006
     8  H    0.000252  -0.000025   0.001773  -0.000104  -0.010739   0.002536
     9  C    0.006292  -0.000347  -0.000021  -0.000152  -0.018532   0.002853
    10  H    0.000611  -0.000018  -0.000020   0.000005   0.004472   0.010565
    11  C   -0.000269   0.000152  -0.000007   0.000000  -0.003593  -0.000621
    12  H    0.000001   0.000004   0.000001   0.000001  -0.000263  -0.000014
    13  H    0.000001  -0.000001  -0.000000   0.000000  -0.000013  -0.000024
    14  H    0.000001  -0.000027   0.000001   0.000001   0.003250   0.000904
    15  C   -0.000257  -0.000006   0.000003   0.000002   0.004711   0.000022
    16  O   -0.000037   0.000000  -0.000003  -0.000000   0.000270  -0.000003
    17  N   -0.000000   0.000000  -0.000000  -0.000000  -0.000133  -0.000004
    18  H   -0.000000   0.000000   0.000000   0.000000  -0.000008  -0.000002
    19  C   -0.000000  -0.000000   0.000000   0.000000   0.000001   0.000000
    20  H    0.000000  -0.000000  -0.000000   0.000000   0.000000   0.000000
    21  H    0.000000  -0.000000  -0.000000  -0.000000  -0.000000   0.000000
    22  H    0.000000  -0.000000  -0.000000  -0.000000  -0.000000   0.000000
               7          8          9         10         11         12
     1  C   -0.164914   0.000252   0.006292   0.000611  -0.000269   0.000001
     2  H    0.003008  -0.000025  -0.000347  -0.000018   0.000152   0.000004
     3  H    0.003955   0.001773  -0.000021  -0.000020  -0.000007   0.000001
     4  H    0.006252  -0.000104  -0.000152   0.000005   0.000000   0.000001
     5  C    0.046838  -0.010739  -0.018532   0.004472  -0.003593  -0.000263
     6  O   -0.140006   0.002536   0.002853   0.010565  -0.000621  -0.000014
     7  N    7.567216   0.289845   0.186039  -0.054907  -0.070761  -0.000197
     8  H    0.289845   0.391593  -0.052051   0.004445   0.002018   0.001490
     9  C    0.186039  -0.052051   5.333349   0.369916   0.320282  -0.038265
    10  H   -0.054907   0.004445   0.369916   0.566547  -0.043807   0.005070
    11  C   -0.070761   0.002018   0.320282  -0.043807   5.133377   0.372537
    12  H   -0.000197   0.001490  -0.038265   0.005070   0.372537   0.564599
    13  H    0.005922  -0.000043  -0.033497  -0.000245   0.351865  -0.028528
    14  H   -0.004987  -0.000250  -0.027486  -0.004154   0.374076  -0.029491
    15  C   -0.032661   0.001370   0.200382  -0.037678  -0.050648  -0.004566
    16  O   -0.009504   0.031239  -0.107140   0.002404  -0.001207   0.002841
    17  N    0.003374   0.001869  -0.146046   0.003002   0.002167   0.000053
    18  H    0.000014  -0.000045   0.001667   0.003048  -0.000080   0.000009
    19  C   -0.000123   0.000008   0.004960   0.000027  -0.000355   0.000020
    20  H    0.000002  -0.000029   0.001333  -0.000038  -0.000043  -0.000010
    21  H    0.000005   0.000000  -0.000140  -0.000006  -0.000006   0.000000
    22  H   -0.000000  -0.000000  -0.000133  -0.000005   0.000051  -0.000001
              13         14         15         16         17         18
     1  C    0.000001   0.000001  -0.000257  -0.000037  -0.000000  -0.000000
     2  H   -0.000001  -0.000027  -0.000006   0.000000   0.000000   0.000000
     3  H   -0.000000   0.000001   0.000003  -0.000003  -0.000000   0.000000
     4  H    0.000000   0.000001   0.000002  -0.000000  -0.000000   0.000000
     5  C   -0.000013   0.003250   0.004711   0.000270  -0.000133  -0.000008
     6  O   -0.000024   0.000904   0.000022  -0.000003  -0.000004  -0.000002
     7  N    0.005922  -0.004987  -0.032661  -0.009504   0.003374   0.000014
     8  H   -0.000043  -0.000250   0.001370   0.031239   0.001869  -0.000045
     9  C   -0.033497  -0.027486   0.200382  -0.107140  -0.146046   0.001667
    10  H   -0.000245  -0.004154  -0.037678   0.002404   0.003002   0.003048
    11  C    0.351865   0.374076  -0.050648  -0.001207   0.002167  -0.000080
    12  H   -0.028528  -0.029491  -0.004566   0.002841   0.000053   0.000009
    13  H    0.599839  -0.028533  -0.001685  -0.000080   0.003594   0.000769
    14  H   -0.028533   0.547542   0.004178  -0.000076  -0.000033  -0.000040
    15  C   -0.001685   0.004178   4.770664   0.565356   0.078229  -0.012431
    16  O   -0.000080  -0.000076   0.565356   8.115949  -0.125852   0.002856
    17  N    0.003594  -0.000033   0.078229  -0.125852   7.432690   0.305960
    18  H    0.000769  -0.000040  -0.012431   0.002856   0.305960   0.403277
    19  C   -0.000044   0.000004  -0.033248  -0.008030   0.209561  -0.027975
    20  H   -0.000001   0.000001   0.002459   0.018094  -0.044272   0.003444
    21  H    0.000003   0.000000   0.001459   0.000451  -0.044511  -0.001243
    22  H   -0.000021  -0.000001   0.002607   0.000452  -0.045690  -0.001258
              19         20         21         22
     1  C   -0.000000   0.000000   0.000000   0.000000
     2  H   -0.000000  -0.000000  -0.000000  -0.000000
     3  H    0.000000  -0.000000  -0.000000  -0.000000
     4  H    0.000000   0.000000  -0.000000  -0.000000
     5  C    0.000001   0.000000  -0.000000  -0.000000
     6  O    0.000000   0.000000   0.000000   0.000000
     7  N   -0.000123   0.000002   0.000005  -0.000000
     8  H    0.000008  -0.000029   0.000000  -0.000000
     9  C    0.004960   0.001333  -0.000140  -0.000133
    10  H    0.000027  -0.000038  -0.000006  -0.000005
    11  C   -0.000355  -0.000043  -0.000006   0.000051
    12  H    0.000020  -0.000010   0.000000  -0.000001
    13  H   -0.000044  -0.000001   0.000003  -0.000021
    14  H    0.000004   0.000001   0.000000  -0.000001
    15  C   -0.033248   0.002459   0.001459   0.002607
    16  O   -0.008030   0.018094   0.000451   0.000452
    17  N    0.209561  -0.044272  -0.044511  -0.045690
    18  H   -0.027975   0.003444  -0.001243  -0.001258
    19  C    4.963338   0.380896   0.381635   0.380240
    20  H    0.380896   0.483969  -0.025065  -0.025323
    21  H    0.381635  -0.025065   0.567774  -0.039224
    22  H    0.380240  -0.025323  -0.039224   0.572433
 Mulliken charges:
               1
     1  C   -0.475871
     2  H    0.165445
     3  H    0.156756
     4  H    0.179561
     5  C    0.498749
     6  O   -0.468249
     7  N   -0.634409
     8  H    0.334848
     9  C   -0.003262
    10  H    0.170767
    11  C   -0.385128
    12  H    0.154708
    13  H    0.130722
    14  H    0.165120
    15  C    0.541738
    16  O   -0.487982
    17  N   -0.633957
    18  H    0.322037
    19  C   -0.250915
    20  H    0.204581
    21  H    0.158866
    22  H    0.155873
 Sum of Mulliken charges =   0.00000
 Mulliken charges with hydrogens summed into heavy atoms:
               1
     1  C    0.025892
     5  C    0.498749
     6  O   -0.468249
     7  N   -0.299561
     9  C    0.167504
    11  C    0.065422
    15  C    0.541738
    16  O   -0.487982
    17  N   -0.311919
    19  C    0.268405
 Electronic spatial extent (au):  <R**2>=           2020.0879
 Charge=             -0.0000 electrons
 Dipole moment (field-independent basis, Debye):
    X=              3.0958    Y=              0.9520    Z=              0.9050  Tot=              3.3629
 Quadrupole moment (field-independent basis, Debye-Ang):
   XX=            -53.9013   YY=            -61.1993   ZZ=            -63.8049
   XY=             10.4214   XZ=            -11.8233   YZ=              2.9069
 Traceless Quadrupole moment (field-independent basis, Debye-Ang):
   XX=              5.7339   YY=             -1.5642   ZZ=             -4.1697
   XY=             10.4214   XZ=            -11.8233   YZ=              2.9069
 Octapole moment (field-independent basis, Debye-Ang**2):
  XXX=             41.9128  YYY=              3.2058  ZZZ=              1.8740  XYY=             -0.5120
  XXY=            -14.3793  XXZ=              7.4420  XZZ=             11.0723  YZZ=             -0.6737
  YYZ=             -2.8783  XYZ=             -5.5099
 Hexadecapole moment (field-independent basis, Debye-Ang**3):
 XXXX=          -1821.6217 YYYY=           -362.2354 ZZZZ=           -254.5087 XXXY=             34.2954
 XXXZ=            -68.5029 YYYX=             10.4034 YYYZ=             -4.5817 ZZZX=            -14.9302
 ZZZY=             -3.6379 XXYY=           -390.1906 XXZZ=           -392.8440 YYZZ=           -105.4920
 XXYZ=             14.8253 YYXZ=            -12.7214 ZZXY=             10.9440
 N-N= 5.433136533985D+02 E-N=-2.243669774561D+03  KE= 4.928548228615D+02
 No NMR shielding tensors so no spin-rotation constants.
 Leave Link  601 at Sat Jul 18 16:39:24 2020, MaxMem=   104857600 cpu:               0.1 elap:               0.1
 (Enter /opt/g16/g16/l701.exe)
 ... and contract with generalized density number  0.
 Compute integral first derivatives.
 Leave Link  701 at Sat Jul 18 16:39:24 2020, MaxMem=   104857600 cpu:               0.1 elap:               0.1
 (Enter /opt/g16/g16/l702.exe)
 L702 exits ... SP integral derivatives will be done elsewhere.
 Leave Link  702 at Sat Jul 18 16:39:24 2020, MaxMem=   104857600 cpu:               0.0 elap:               0.0
 (Enter /opt/g16/g16/l703.exe)
 Integral derivatives from FoFJK, PRISM(SPDF).
 Compute integral first derivatives, UseDBF=F ICtDFT=           0.
 Calling FoFJK, ICntrl=      2127 FMM=F ISym2X=0 I1Cent= 0 IOpClX= 0 NMat=1 NMatS=1 NMatT=0.
 FoFJK:  IHMeth= 1 ICntrl=    2127 DoSepK=F KAlg= 0 I1Cent=           0 FoldK=F
 IRaf=         0 NMat=       1 IRICut=       1 DoRegI=T DoRafI=F ISym2E= 0 IDoP0=0 IntGTp=1.
 FoFCou: FMM=F IPFlag=           0 FMFlag=      100000 FMFlg1=         800
         NFxFlg=           0 DoJE=F BraDBF=F KetDBF=F FulRan=T
         wScrn=  0.000000 ICntrl=      2127 IOpCl=  0 I1Cent=           0 NGrid=           0
         NMat0=    1 NMatS0=      1 NMatT0=    0 NMatD0=    1 NMtDS0=    0 NMtDT0=    0
 Symmetry not used in FoFCou.
 Leave Link  703 at Sat Jul 18 16:39:38 2020, MaxMem=   104857600 cpu:              14.1 elap:              14.1
 (Enter /opt/g16/g16/l716.exe)
 Dipole        = 1.21798374D+00 3.74547755D-01 3.56065916D-01
 ***** Axes restored to original set *****
 -------------------------------------------------------------------
 Center     Atomic                   Forces (Hartrees/Bohr)
 Number     Number              X              Y              Z
 -------------------------------------------------------------------
      1        6           0.002755563    0.001543911   -0.000735053
      2        1           0.001436662    0.001009066    0.000991825
      3        1           0.001096528   -0.000136580   -0.000408825
      4        1           0.000180193    0.000799446   -0.000721943
      5        6          -0.001653950    0.009799840    0.012833115
      6        8          -0.007037728   -0.002917638    0.004376077
      7        7           0.005931368   -0.012966880   -0.016456235
      8        1           0.002661710   -0.005175054    0.005783280
      9        6          -0.000282652    0.008821434    0.000388803
     10        1          -0.002603714   -0.000581788   -0.002316012
     11        6          -0.001635500   -0.000808571   -0.002298836
     12        1           0.000522098   -0.000504762    0.000227862
     13        1           0.000067093    0.000430456   -0.000329035
     14        1          -0.000317985    0.001305154   -0.000162061
     15        6          -0.002756501    0.000541257    0.002172221
     16        8           0.001687796   -0.000548497   -0.002563397
     17        7           0.000574327   -0.000695508   -0.000481282
     18        1          -0.000398507    0.000149495   -0.000345339
     19        6          -0.000260408   -0.000079117   -0.000036977
     20        1           0.000019177   -0.000033768   -0.000033581
     21        1          -0.000037639    0.000016985    0.000057495
     22        1           0.000052070    0.000031120    0.000057900
 -------------------------------------------------------------------
 Cartesian Forces:  Max     0.016456235 RMS     0.003940613
 Leave Link  716 at Sat Jul 18 16:39:38 2020, MaxMem=   104857600 cpu:               0.0 elap:               0.0
 (Enter /opt/g16/g16/l103.exe)

 GradGradGradGradGradGradGradGradGradGradGradGradGradGradGradGradGradGrad
 Berny optimization.
 FormGI is forming the generalized inverse of G from B-inverse, IUseBI=4.
 Internal  Forces:  Max     0.017094408 RMS     0.003153052
 Search for a local minimum.
 Step number   1 out of a maximum of  108
 All quantities printed in internal units (Hartrees-Bohrs-Radians)
 RMS Force = .31531D-02 SwitMx=.10000D-02 MixMth= 1
 Mixed Optimization -- RFO/linear search
 Second derivative matrix not updated -- first step.
 ITU=  0
     Eigenvalues ---    0.00230   0.00258   0.00514   0.00856   0.00919
     Eigenvalues ---    0.01054   0.01124   0.01380   0.01388   0.02045
     Eigenvalues ---    0.02175   0.04689   0.04932   0.05449   0.05625
     Eigenvalues ---    0.06549   0.06965   0.07296   0.07427   0.07713
     Eigenvalues ---    0.15998   0.15998   0.16000   0.16000   0.16000
     Eigenvalues ---    0.16000   0.16000   0.16000   0.16000   0.16000
     Eigenvalues ---    0.16000   0.17191   0.17866   0.22000   0.22000
     Eigenvalues ---    0.24983   0.24996   0.25000   0.25000   0.27732
     Eigenvalues ---    0.28662   0.30460   0.33974   0.34007   0.34112
     Eigenvalues ---    0.34170   0.34202   0.34219   0.34314   0.34341
     Eigenvalues ---    0.34725   0.34800   0.36566   0.37166   0.45011
     Eigenvalues ---    0.46055   0.50345   0.52247   0.82397   0.82958
 RFO step:  Lambda=-8.90553913D-03 EMin= 2.30000000D-03
 Linear search not attempted -- first point.
 Iteration  1 RMS(Cart)=  0.10268397 RMS(Int)=  0.00690420
 Iteration  2 RMS(Cart)=  0.01389032 RMS(Int)=  0.00016303
 Iteration  3 RMS(Cart)=  0.00013513 RMS(Int)=  0.00014737
 Iteration  4 RMS(Cart)=  0.00000001 RMS(Int)=  0.00014737
 ITry= 1 IFail=0 DXMaxC= 4.89D-01 DCOld= 1.00D+10 DXMaxT= 3.00D-01 DXLimC= 3.00D+00 Rises=F
 Variable       Old X    -DE/DX   Delta X   Delta X   Delta X     New X
                                 (Linear)    (Quad)   (Total)
    R1        2.07373  -0.00094   0.00000  -0.00270  -0.00270   2.07104
    R2        2.07044   0.00095   0.00000   0.00272   0.00272   2.07316
    R3        2.06001   0.00026   0.00000   0.00072   0.00072   2.06073
    R4        2.87056  -0.00239   0.00000  -0.00763  -0.00763   2.86293
    R5        2.36359   0.00474   0.00000   0.00565   0.00565   2.36924
    R6        2.59519  -0.00028   0.00000  -0.00054  -0.00054   2.59465
    R7        1.91963  -0.00052   0.00000  -0.00114  -0.00114   1.91849
    R8        2.75596  -0.00634   0.00000  -0.01665  -0.01665   2.73931
    R9        2.07318  -0.00037   0.00000  -0.00107  -0.00107   2.07211
   R10        2.92727  -0.00161   0.00000  -0.00561  -0.00561   2.92166
   R11        2.90714  -0.00108   0.00000  -0.00367  -0.00367   2.90348
   R12        2.06803   0.00054   0.00000   0.00153   0.00153   2.06956
   R13        2.07142  -0.00022   0.00000  -0.00063  -0.00063   2.07079
   R14        2.06759   0.00004   0.00000   0.00010   0.00010   2.06769
   R15        2.36648   0.00306   0.00000   0.00367   0.00367   2.37015
   R16        2.57664  -0.00092   0.00000  -0.00172  -0.00172   2.57491
   R17        1.90770   0.00003   0.00000   0.00006   0.00006   1.90776
   R18        2.76506  -0.00023   0.00000  -0.00062  -0.00062   2.76443
   R19        2.06123   0.00005   0.00000   0.00014   0.00014   2.06137
   R20        2.06963   0.00001   0.00000   0.00003   0.00003   2.06965
   R21        2.06990   0.00006   0.00000   0.00016   0.00016   2.07006
    A1        1.88286   0.00042   0.00000  -0.00274  -0.00285   1.88001
    A2        1.89516   0.00139   0.00000   0.01245   0.01248   1.90764
    A3        1.94076  -0.00219   0.00000  -0.01384  -0.01388   1.92688
    A4        1.90248  -0.00003   0.00000   0.00131   0.00131   1.90379
    A5        1.96046  -0.00043   0.00000  -0.00470  -0.00476   1.95570
    A6        1.88098   0.00093   0.00000   0.00841   0.00842   1.88941
    A7        2.11981   0.00234   0.00000   0.00891   0.00881   2.12862
    A8        2.05134  -0.01070   0.00000  -0.04146  -0.04156   2.00978
    A9        2.11188   0.00835   0.00000   0.03212   0.03201   2.14389
   A10        2.04141   0.01450   0.00000   0.07237   0.07214   2.11355
   A11        2.23728  -0.01709   0.00000  -0.07480  -0.07500   2.16228
   A12        2.00434   0.00258   0.00000   0.00185   0.00167   2.00601
   A13        1.90993  -0.00085   0.00000  -0.02185  -0.02195   1.88797
   A14        1.96359  -0.00198   0.00000  -0.01542  -0.01551   1.94807
   A15        1.86740   0.00033   0.00000   0.00249   0.00263   1.87004
   A16        1.90794   0.00028   0.00000   0.00177   0.00127   1.90922
   A17        1.90424   0.00065   0.00000   0.01991   0.01982   1.92406
   A18        1.90971   0.00163   0.00000   0.01431   0.01425   1.92396
   A19        1.91348   0.00097   0.00000   0.00774   0.00776   1.92124
   A20        1.94302  -0.00067   0.00000  -0.00547  -0.00550   1.93752
   A21        1.92534  -0.00169   0.00000  -0.01050  -0.01052   1.91482
   A22        1.89647  -0.00006   0.00000   0.00058   0.00059   1.89706
   A23        1.89073   0.00075   0.00000   0.00741   0.00744   1.89816
   A24        1.89377   0.00075   0.00000   0.00067   0.00060   1.89436
   A25        2.10966   0.00045   0.00000   0.00183   0.00182   2.11148
   A26        2.02009  -0.00022   0.00000  -0.00078  -0.00079   2.01930
   A27        2.15276  -0.00022   0.00000  -0.00076  -0.00077   2.15199
   A28        2.07870  -0.00058   0.00000  -0.00316  -0.00317   2.07554
   A29        2.13766   0.00036   0.00000   0.00157   0.00157   2.13923
   A30        2.06670   0.00021   0.00000   0.00151   0.00151   2.06821
   A31        1.87616   0.00001   0.00000   0.00020   0.00020   1.87636
   A32        1.93718  -0.00008   0.00000  -0.00054  -0.00054   1.93664
   A33        1.93832   0.00006   0.00000   0.00032   0.00032   1.93865
   A34        1.90291   0.00004   0.00000   0.00034   0.00034   1.90326
   A35        1.90533  -0.00000   0.00000   0.00013   0.00013   1.90546
   A36        1.90331  -0.00004   0.00000  -0.00043  -0.00043   1.90288
    D1       -1.99216  -0.00030   0.00000   0.01901   0.01899  -1.97317
    D2        1.13031  -0.00079   0.00000  -0.00639  -0.00626   1.12406
    D3        2.17892   0.00101   0.00000   0.03568   0.03556   2.21448
    D4       -0.98179   0.00052   0.00000   0.01028   0.01032  -0.97148
    D5        0.08302   0.00070   0.00000   0.03138   0.03129   0.11431
    D6       -3.07769   0.00021   0.00000   0.00598   0.00604  -3.07165
    D7        0.39335  -0.00533   0.00000  -0.17524  -0.17467   0.21868
    D8       -2.76779  -0.00627   0.00000  -0.21340  -0.21374  -2.98153
    D9       -2.76727  -0.00588   0.00000  -0.20078  -0.20044  -2.96771
   D10        0.35478  -0.00683   0.00000  -0.23894  -0.23951   0.11527
   D11       -0.60446   0.00080   0.00000   0.01405   0.01359  -0.59088
   D12        1.52004  -0.00077   0.00000  -0.00945  -0.00965   1.51039
   D13       -2.66537   0.00029   0.00000   0.00069   0.00039  -2.66498
   D14        2.51793  -0.00001   0.00000  -0.02275  -0.02256   2.49537
   D15       -1.64075  -0.00158   0.00000  -0.04625  -0.04581  -1.68656
   D16        0.45703  -0.00052   0.00000  -0.03611  -0.03577   0.42126
   D17        1.05029   0.00089   0.00000   0.01124   0.01121   1.06150
   D18       -3.13393   0.00103   0.00000   0.01357   0.01352  -3.12041
   D19       -1.03046   0.00041   0.00000   0.00375   0.00375  -1.02670
   D20       -3.10727  -0.00131   0.00000  -0.02564  -0.02565  -3.13292
   D21       -1.00830  -0.00117   0.00000  -0.02331  -0.02335  -1.03165
   D22        1.09517  -0.00180   0.00000  -0.03313  -0.03311   1.06206
   D23       -1.02289   0.00064   0.00000   0.00830   0.00834  -1.01454
   D24        1.07608   0.00078   0.00000   0.01063   0.01065   1.08674
   D25       -3.10363   0.00015   0.00000   0.00082   0.00088  -3.10274
   D26       -0.49927   0.00046   0.00000   0.01383   0.01381  -0.48545
   D27        2.68049   0.00031   0.00000   0.00568   0.00566   2.68615
   D28       -2.56388   0.00094   0.00000   0.02772   0.02781  -2.53607
   D29        0.61587   0.00078   0.00000   0.01957   0.01965   0.63552
   D30        1.63264  -0.00078   0.00000   0.00502   0.00495   1.63759
   D31       -1.47079  -0.00093   0.00000  -0.00313  -0.00320  -1.47400
   D32       -0.07321  -0.00012   0.00000  -0.00328  -0.00328  -0.07649
   D33        3.08565  -0.00000   0.00000   0.00206   0.00205   3.08771
   D34        3.10759  -0.00029   0.00000  -0.01172  -0.01171   3.09588
   D35       -0.01673  -0.00018   0.00000  -0.00637  -0.00638  -0.02311
   D36       -0.00259  -0.00006   0.00000  -0.00261  -0.00261  -0.00520
   D37        2.07699  -0.00004   0.00000  -0.00238  -0.00239   2.07461
   D38       -2.08576  -0.00009   0.00000  -0.00308  -0.00308  -2.08884
   D39       -3.12702   0.00007   0.00000   0.00274   0.00274  -3.12428
   D40       -1.04744   0.00009   0.00000   0.00297   0.00297  -1.04447
   D41        1.07299   0.00003   0.00000   0.00227   0.00227   1.07526
         Item               Value     Threshold  Converged?
 Maximum Force            0.017094     0.000450     NO 
 RMS     Force            0.003153     0.000300     NO 
 Maximum Displacement     0.488762     0.001800     NO 
 RMS     Displacement     0.111961     0.001200     NO 
 Predicted change in Energy=-5.346751D-03
 Lowest energy point so far.  Saving SCF results.
 GradGradGradGradGradGradGradGradGradGradGradGradGradGradGradGradGradGrad

 Leave Link  103 at Sat Jul 18 16:39:38 2020, MaxMem=   104857600 cpu:               0.0 elap:               0.0
 (Enter /opt/g16/g16/l202.exe)
                          Input orientation:                          
 ---------------------------------------------------------------------
 Center     Atomic      Atomic             Coordinates (Angstroms)
 Number     Number       Type             X           Y           Z
 ---------------------------------------------------------------------
      1          6           0       -2.803396   -0.534083   -1.687330
      2          1           0       -2.773462   -1.629456   -1.706277
      3          1           0       -2.140145   -0.168205   -2.480921
      4          1           0       -3.820782   -0.197780   -1.889803
      5          6           0       -2.395807   -0.018141   -0.322453
      6          8           0       -3.205209    0.568753    0.434059
      7          7           0       -1.099643   -0.288986    0.040604
      8          1           0       -0.424930   -0.627923   -0.638038
      9          6           0       -0.566822   -0.056589    1.368525
     10          1           0       -1.055422    0.833682    1.782086
     11          6           0       -0.820320   -1.261982    2.302933
     12          1           0       -0.329313   -2.156229    1.904663
     13          1           0       -0.432836   -1.067307    3.309297
     14          1           0       -1.895210   -1.453393    2.375011
     15          6           0        0.942151    0.188366    1.214622
     16          8           0        1.583620   -0.313251    0.260689
     17          7           0        1.520869    0.942635    2.190738
     18          1           0        0.935289    1.347600    2.906471
     19          6           0        2.957955    1.213453    2.228715
     20          1           0        3.409582    0.709461    1.373186
     21          1           0        3.156185    2.288121    2.156023
     22          1           0        3.407019    0.829055    3.150967
 ---------------------------------------------------------------------
                    Distance matrix (angstroms):
                    1          2          3          4          5
     1  C    0.000000
     2  H    1.095945   0.000000
     3  H    1.097068   1.770994   0.000000
     4  H    1.090490   1.783327   1.781807   0.000000
     5  C    1.514996   2.157297   2.178730   2.125890   0.000000
     6  O    2.424456   3.098317   3.189761   2.523259   1.253748
     7  N    2.438976   2.765886   2.730443   3.337571   1.373029
     8  H    2.601330   2.767635   2.559203   3.644687   2.087051
     9  C    3.816872   4.098486   4.160053   4.607048   2.491199
    10  H    4.118621   4.602976   4.511500   4.711040   2.636536
    11  C    4.514933   4.474770   5.081687   5.264440   3.304837
    12  H    4.653478   4.392066   5.144385   5.515781   3.715086
    13  H    5.556092   5.563320   6.103271   6.266170   4.259532
    14  H    4.262927   4.178426   5.029093   4.844897   3.096265
    15  C    4.792951   5.063784   4.825425   5.698428   3.680653
    16  O    4.805149   4.958379   4.626434   5.817689   4.032739
    17  N    5.993278   6.343789   6.038326   6.817961   4.751797
    18  H    6.214620   6.625341   6.385918   6.929116   4.836052
    19  C    7.182093   7.511021   7.076742   8.056366   6.057066
    20  H    7.036637   7.292713   6.813509   7.984256   6.091563
    21  H    7.632353   8.088603   7.455595   8.439578   6.502793
    22  H    7.989775   8.236227   7.967667   8.871575   6.815803
                    6          7          8          9         10
     6  O    0.000000
     7  N    2.307364   0.000000
     8  H    3.211132   1.015219   0.000000
     9  C    2.867990   1.449580   2.091137   0.000000
    10  H    2.551264   2.072462   2.896689   1.096515   0.000000
    11  C    3.540053   2.478482   3.034414   1.546076   2.172178
    12  H    4.225988   2.748585   2.968196   2.179987   3.079257
    13  H    4.316218   3.425605   3.971722   2.192282   2.516693
    14  H    3.093941   2.727311   3.452765   2.174555   2.507492
    15  C    4.237283   2.403145   2.442865   1.536453   2.174568
    16  O    4.872460   2.692383   2.222837   2.432607   3.254942
    17  N    5.055840   3.606529   3.775548   2.456204   2.610774
    18  H    4.884992   3.877184   4.279770   2.567754   2.343349
    19  C    6.451435   4.848635   4.801339   3.844085   4.055971
    20  H    6.682605   4.806847   4.531788   4.049524   4.485409
    21  H    6.810927   5.406344   5.397637   4.469743   4.471337
    22  H    7.153384   5.588772   5.582399   4.444420   4.667679
                   11         12         13         14         15
    11  C    0.000000
    12  H    1.095164   0.000000
    13  H    1.095816   1.780300   0.000000
    14  H    1.094176   1.779673   1.777777   0.000000
    15  C    2.528681   2.754977   2.802671   3.477425   0.000000
    16  O    3.293900   3.123865   3.732118   4.227592   1.254229
    17  N    3.217777   3.620493   3.017947   4.176661   1.362586
    18  H    3.202552   3.857416   2.804605   4.017429   2.050908
    19  C    4.517593   4.718676   4.226936   5.539556   2.478438
    20  H    4.758475   4.740673   4.655063   5.815703   2.526836
    21  H    5.332673   5.653683   5.046783   6.289950   3.193299
    22  H    4.791867   4.942203   4.285527   5.824543   3.199295
                   16         17         18         19         20
    16  O    0.000000
    17  N    2.303536   0.000000
    18  H    3.190442   1.009542   0.000000
    19  C    2.844776   1.462874   2.137411   0.000000
    20  H    2.370174   2.071231   2.979985   1.090829   0.000000
    21  H    3.582233   2.117970   2.525892   1.095213   1.780229
    22  H    3.603242   2.119552   2.537344   1.095431   1.781801
                   21         22
    21  H    0.000000
    22  H    1.783734   0.000000
 Stoichiometry    C6H12N2O2
 Framework group  C1[X(C6H12N2O2)]
 Deg. of freedom    60
 Full point group                 C1      NOp   1
 RotChk:  IX=0 Diff= 4.81D-02
 Largest Abelian subgroup         C1      NOp   1
 Largest concise Abelian subgroup C1      NOp   1
                         Standard orientation:                         
 ---------------------------------------------------------------------
 Center     Atomic      Atomic             Coordinates (Angstroms)
 Number     Number       Type             X           Y           Z
 ---------------------------------------------------------------------
      1          6           0       -3.378932   -1.073291    0.112448
      2          1           0       -3.544630   -0.992560    1.192783
      3          1           0       -3.104358   -2.112643   -0.106445
      4          1           0       -4.303088   -0.830509   -0.413062
      5          6           0       -2.309501   -0.096689   -0.332275
      6          8           0       -2.569332    0.878796   -1.075782
      7          7           0       -1.057429   -0.328650    0.181259
      8          1           0       -0.837799   -1.199671    0.654288
      9          6           0        0.056824    0.587665    0.039526
     10          1           0       -0.030263    1.083935   -0.934371
     11          6           0        0.064032    1.653198    1.159765
     12          1           0        0.159586    1.169827    2.137827
     13          1           0        0.897342    2.353070    1.030976
     14          1           0       -0.872206    2.219024    1.136914
     15          6           0        1.342935   -0.251061    0.095607
     16          8           0        1.379770   -1.335097    0.725369
     17          7           0        2.422640    0.279422   -0.544287
     18          1           0        2.308837    1.136679   -1.065184
     19          6           0        3.738634   -0.359298   -0.530150
     20          1           0        3.654770   -1.270519    0.063609
     21          1           0        4.057702   -0.621700   -1.544463
     22          1           0        4.490170    0.296930   -0.077903
 ---------------------------------------------------------------------
 Rotational constants (GHZ):           2.7102951           0.6402437           0.5982709
 Leave Link  202 at Sat Jul 18 16:39:38 2020, MaxMem=   104857600 cpu:               0.0 elap:               0.0
 (Enter /opt/g16/g16/l301.exe)
 Standard basis: 6-31G (6D, 7F)
 Ernie: Thresh=  0.10000D-02 Tol=  0.10000D-05 Strict=F.
 There are   114 symmetry adapted cartesian basis functions of A   symmetry.
 There are   114 symmetry adapted basis functions of A   symmetry.
   114 basis functions,   268 primitive gaussians,   114 cartesian basis functions
    39 alpha electrons       39 beta electrons
       nuclear repulsion energy       545.2168659078 Hartrees.
 IExCor=  402 DFT=T Ex+Corr=B3LYP ExCW=0 ScaHFX=  0.200000
 ScaDFX=  0.800000  0.720000  1.000000  0.810000 ScalE2=  1.000000  1.000000
 IRadAn=      5 IRanWt=     -1 IRanGd=            0 ICorTp=0 IEmpDi=  4
 NAtoms=   22 NActive=   22 NUniq=   22 SFac= 1.00D+00 NAtFMM=   60 NAOKFM=F Big=F
 Integral buffers will be    131072 words long.
 Raffenetti 2 integral format.
 Two-electron integral symmetry is turned on.
 Leave Link  301 at Sat Jul 18 16:39:38 2020, MaxMem=   104857600 cpu:               0.1 elap:               0.1
 (Enter /opt/g16/g16/l302.exe)
 NPDir=0 NMtPBC=     1 NCelOv=     1 NCel=       1 NClECP=     1 NCelD=      1
         NCelK=      1 NCelE2=     1 NClLst=     1 CellRange=     0.0.
 One-electron integrals computed using PRISM.
 One-electron integral symmetry used in STVInt
 NBasis=   114 RedAO= T EigKep=  3.89D-03  NBF=   114
 NBsUse=   114 1.00D-06 EigRej= -1.00D+00 NBFU=   114
 Precomputing XC quadrature grid using
 IXCGrd= 4 IRadAn=           5 IRanWt=          -1 IRanGd=           0 AccXCQ= 0.00D+00.
 Generated NRdTot=       0 NPtTot=           0 NUsed=           0 NTot=          32
 NSgBfM=   114   114   114   114   114 MxSgAt=    22 MxSgA2=    22.
 Leave Link  302 at Sat Jul 18 16:39:39 2020, MaxMem=   104857600 cpu:               0.9 elap:               0.9
 (Enter /opt/g16/g16/l303.exe)
 DipDrv:  MaxL=1.
 Leave Link  303 at Sat Jul 18 16:39:39 2020, MaxMem=   104857600 cpu:               0.0 elap:               0.0
 (Enter /opt/g16/g16/l401.exe)
 Initial guess from the checkpoint file:  "/tmp/scratch/Gau-26700.chk"
 B after Tr=    -0.000000   -0.000000   -0.000000
         Rot=    0.999743   -0.022256   -0.000117   -0.004354 Ang=  -2.60 deg.
 Guess basis will be translated and rotated to current coordinates.
 JPrj=2 DoOrth=T DoCkMO=T.
 Generating alternative initial guess.
 ExpMin= 1.61D-01 ExpMax= 5.48D+03 ExpMxC= 8.25D+02 IAcc=2 IRadAn=         4 AccDes= 0.00D+00
 Harris functional with IExCor=  402 and IRadAn=       4 diagonalized for initial guess.
 HarFok:  IExCor=  402 AccDes= 0.00D+00 IRadAn=         4 IDoV= 1 UseB2=F ITyADJ=14
 ICtDFT=  3500011 ScaDFX=  1.000000  1.000000  1.000000  1.000000
 FoFCou: FMM=F IPFlag=           0 FMFlag=      100000 FMFlg1=           0
         NFxFlg=           0 DoJE=T BraDBF=F KetDBF=T FulRan=T
         wScrn=  0.000000 ICntrl=       500 IOpCl=  0 I1Cent=   200000004 NGrid=           0
         NMat0=    1 NMatS0=      1 NMatT0=    0 NMatD0=    1 NMtDS0=    0 NMtDT0=    0
 Petite list used in FoFCou.
 Harris En= -495.751134930756    
 Leave Link  401 at Sat Jul 18 16:39:41 2020, MaxMem=   104857600 cpu:               2.3 elap:               2.3
 (Enter /opt/g16/g16/l502.exe)
 Keep R1 ints in memory in canonical form, NReq=22427569.
 FoFCou: FMM=F IPFlag=           0 FMFlag=           0 FMFlg1=           0
         NFxFlg=           0 DoJE=F BraDBF=F KetDBF=F FulRan=T
         wScrn=  0.000000 ICntrl=       600 IOpCl=  0 I1Cent=           0 NGrid=           0
         NMat0=    1 NMatS0=   6555 NMatT0=    0 NMatD0=    1 NMtDS0=    0 NMtDT0=    0
 Symmetry not used in FoFCou.
 Two-electron integral symmetry not used.
 Closed shell SCF:
 Using DIIS extrapolation, IDIIS=  1040.
 NGot=   104857600 LenX=    83341928 LenY=    83328491
 Requested convergence on RMS density matrix=1.00D-08 within 128 cycles.
 Requested convergence on MAX density matrix=1.00D-06.
 Requested convergence on             energy=1.00D-06.
 No special actions if energy rises.
 Integral accuracy reduced to 1.0D-05 until final iterations.

 Cycle   1  Pass 0  IDiag  1:
 E= -495.673692282559    
 DIIS: error= 1.11D-02 at cycle   1 NSaved=   1.
 NSaved= 1 IEnMin= 1 EnMin= -495.673692282559     IErMin= 1 ErrMin= 1.11D-02
 ErrMax= 1.11D-02  0.00D+00 EMaxC= 1.00D-01 BMatC= 1.40D-02 BMatP= 1.40D-02
 IDIUse=3 WtCom= 8.89D-01 WtEn= 1.11D-01
 Coeff-Com:  0.100D+01
 Coeff-En:   0.100D+01
 Coeff:      0.100D+01
 Recover alternate guess density for next cycle.
 RMSDP=6.46D-03 MaxDP=9.47D-02              OVMax= 0.00D+00

 Cycle   2  Pass 0  IDiag  1:
 E= -495.373220201621     Delta-E=        0.300472080938 Rises=F Damp=F
 Switch densities from cycles 1 and 2 for lowest energy.
 DIIS: error= 3.64D-02 at cycle   2 NSaved=   2.
 NSaved= 2 IEnMin= 1 EnMin= -495.673692282559     IErMin= 1 ErrMin= 1.11D-02
 ErrMax= 3.64D-02  0.00D+00 EMaxC= 1.00D+00 BMatC= 3.56D-01 BMatP= 1.40D-02
 IDIUse=1 WtCom= 1.00D+00 WtEn= 0.00D+00
 Coeff-Com:  0.963D+00 0.369D-01
 Coeff:      0.963D+00 0.369D-01
 Gap=     0.260 Goal=   None    Shift=    0.000
 RMSDP=2.10D-03 MaxDP=5.00D-02 DE= 3.00D-01 OVMax= 9.88D-02

 Cycle   3  Pass 0  IDiag  1:
 E= -495.703902783105     Delta-E=       -0.330682581483 Rises=F Damp=F
 DIIS: error= 2.11D-03 at cycle   3 NSaved=   3.
 NSaved= 3 IEnMin= 3 EnMin= -495.703902783105     IErMin= 3 ErrMin= 2.11D-03
 ErrMax= 2.11D-03  0.00D+00 EMaxC= 1.00D+00 BMatC= 1.32D-03 BMatP= 1.40D-02
 IDIUse=1 WtCom= 1.00D+00 WtEn= 0.00D+00
 Coeff-Com: -0.584D-01 0.537D-01 0.100D+01
 Coeff:     -0.584D-01 0.537D-01 0.100D+01
 Gap=     0.245 Goal=   None    Shift=    0.000
 RMSDP=4.88D-04 MaxDP=9.78D-03 DE=-3.31D-01 OVMax= 1.18D-02

 Cycle   4  Pass 0  IDiag  1:
 E= -495.704785463089     Delta-E=       -0.000882679985 Rises=F Damp=F
 DIIS: error= 2.04D-03 at cycle   4 NSaved=   4.
 NSaved= 4 IEnMin= 4 EnMin= -495.704785463089     IErMin= 4 ErrMin= 2.04D-03
 ErrMax= 2.04D-03  0.00D+00 EMaxC= 1.00D+00 BMatC= 4.98D-04 BMatP= 1.32D-03
 IDIUse=1 WtCom= 1.00D+00 WtEn= 0.00D+00
 Coeff-Com: -0.450D-01 0.281D-01 0.599D+00 0.418D+00
 Coeff:     -0.450D-01 0.281D-01 0.599D+00 0.418D+00
 Gap=     0.246 Goal=   None    Shift=    0.000
 RMSDP=2.59D-04 MaxDP=5.31D-03 DE=-8.83D-04 OVMax= 8.04D-03

 Cycle   5  Pass 0  IDiag  1:
 E= -495.705163466201     Delta-E=       -0.000378003111 Rises=F Damp=F
 DIIS: error= 6.23D-04 at cycle   5 NSaved=   5.
 NSaved= 5 IEnMin= 5 EnMin= -495.705163466201     IErMin= 5 ErrMin= 6.23D-04
 ErrMax= 6.23D-04  0.00D+00 EMaxC= 1.00D+00 BMatC= 4.69D-05 BMatP= 4.98D-04
 IDIUse=1 WtCom= 1.00D+00 WtEn= 0.00D+00
 Coeff-Com: -0.133D-01 0.665D-02 0.155D+00 0.253D+00 0.599D+00
 Coeff:     -0.133D-01 0.665D-02 0.155D+00 0.253D+00 0.599D+00
 Gap=     0.246 Goal=   None    Shift=    0.000
 RMSDP=7.93D-05 MaxDP=1.75D-03 DE=-3.78D-04 OVMax= 3.07D-03

 Cycle   6  Pass 0  IDiag  1:
 E= -495.705196113140     Delta-E=       -0.000032646939 Rises=F Damp=F
 DIIS: error= 2.08D-04 at cycle   6 NSaved=   6.
 NSaved= 6 IEnMin= 6 EnMin= -495.705196113140     IErMin= 6 ErrMin= 2.08D-04
 ErrMax= 2.08D-04  0.00D+00 EMaxC= 1.00D+00 BMatC= 7.76D-06 BMatP= 4.69D-05
 IDIUse=1 WtCom= 1.00D+00 WtEn= 0.00D+00
 Coeff-Com: -0.273D-02 0.113D-02 0.260D-01 0.114D+00 0.381D+00 0.481D+00
 Coeff:     -0.273D-02 0.113D-02 0.260D-01 0.114D+00 0.381D+00 0.481D+00
 Gap=     0.246 Goal=   None    Shift=    0.000
 RMSDP=3.25D-05 MaxDP=6.89D-04 DE=-3.26D-05 OVMax= 1.17D-03

 Cycle   7  Pass 0  IDiag  1:
 E= -495.705202512871     Delta-E=       -0.000006399731 Rises=F Damp=F
 DIIS: error= 9.45D-05 at cycle   7 NSaved=   7.
 NSaved= 7 IEnMin= 7 EnMin= -495.705202512871     IErMin= 7 ErrMin= 9.45D-05
 ErrMax= 9.45D-05  0.00D+00 EMaxC= 1.00D+00 BMatC= 8.36D-07 BMatP= 7.76D-06
 IDIUse=1 WtCom= 1.00D+00 WtEn= 0.00D+00
 Coeff-Com: -0.727D-03 0.168D-03 0.480D-02 0.504D-01 0.185D+00 0.309D+00
 Coeff-Com:  0.451D+00
 Coeff:     -0.727D-03 0.168D-03 0.480D-02 0.504D-01 0.185D+00 0.309D+00
 Coeff:      0.451D+00
[...]
                    Distance matrix (angstroms):
                    1          2          3          4          5
     1  C    0.000000
     2  H    1.094710   0.000000
     3  H    1.093638   1.780632   0.000000
     4  H    1.094436   1.762538   1.781569   0.000000
     5  C    1.516250   2.141848   2.191453   2.140746   0.000000
     6  O    2.428283   2.748854   3.333766   2.731642   1.255904
     7  N    2.444346   3.157329   2.555412   3.172493   1.364331
     8  H    2.628689   3.392120   2.295603   3.394378   2.094428
     9  C    3.821987   4.456805   4.012396   4.455605   2.469836
    10  H    4.099177   4.789700   4.474769   4.501318   2.658720
    11  C    4.544511   4.857859   4.836262   5.328286   3.191705
    12  H    4.708295   4.918522   4.819977   5.633063   3.585151
    13  H    5.579307   5.918573   5.883851   6.299196   4.165718
    14  H    4.274924   4.412879   4.782043   5.016534   2.928254
    15  C    4.793160   5.542633   4.668180   5.410438   3.689689
    16  O    4.743150   5.521946   4.334182   5.397311   3.985396
    17  N    6.045453   6.793613   5.993433   6.589524   4.826466
    18  H    6.310538   7.009295   6.425678   6.806858   4.952690
    19  C    7.222353   8.012436   7.015850   7.755516   6.128751
    20  H    7.033602   7.841305   6.667393   7.594387   6.122863
    21  H    7.752896   8.616442   7.580931   8.159306   6.659196
    22  H    7.982679   8.690012   7.793230   8.593736   6.837442
                    6          7          8          9         10
     6  O    0.000000
     7  N    2.291789   0.000000
     8  H    3.212674   1.013764   0.000000
     9  C    2.808985   1.457628   2.097720   0.000000
    10  H    2.611990   2.081920   2.861603   1.098477   0.000000
    11  C    3.233209   2.490357   3.132744   1.546734   2.160579
    12  H    3.884324   2.763629   3.118998   2.182912   3.073175
    13  H    4.044958   3.440379   4.053368   2.198272   2.508592
    14  H    2.644584   2.721460   3.543393   2.159730   2.472934
    15  C    4.254233   2.401523   2.408634   1.533498   2.168981
    16  O    4.840253   2.643168   2.136048   2.434281   3.200168
    17  N    5.160896   3.641625   3.761534   2.453506   2.675897
    18  H    5.036863   3.941560   4.293442   2.564553   2.472603
    19  C    6.568693   4.871106   4.768232   3.841596   4.100432
    20  H    6.755783   4.802067   4.473914   4.048459   4.489500
    21  H    7.028498   5.484273   5.423549   4.464640   4.488363
    22  H    7.217536   5.573249   5.504390   4.444367   4.763771
                   11         12         13         14         15
    11  C    0.000000
    12  H    1.094695   0.000000
    13  H    1.096127   1.779070   0.000000
    14  H    1.092464   1.783991   1.777049   0.000000
    15  C    2.547263   2.787239   2.830620   3.479318   0.000000
    16  O    3.429954   3.340103   3.886579   4.325247   1.256102
    17  N    3.110812   3.482910   2.884395   4.085720   1.361725
    18  H    2.982889   3.591158   2.491898   3.835352   2.049874
    19  C    4.447790   4.621864   4.144383   5.475743   2.478248
    20  H    4.775146   4.768000   4.686373   5.822429   2.527936
    21  H    5.222034   5.542475   4.872698   6.181985   3.197475
    22  H    4.708139   4.775195   4.223599   5.758241   3.194728
                   16         17         18         19         20
    16  O    0.000000
    17  N    2.301596   0.000000
    18  H    3.189700   1.009634   0.000000
    19  C    2.841226   1.462473   2.136766   0.000000
    20  H    2.366521   2.071158   2.979755   1.090713   0.000000
    21  H    3.587908   2.117722   2.525930   1.095263   1.780508
    22  H    3.591166   2.119212   2.535751   1.095459   1.781318
                   21         22
    21  H    0.000000
    22  H    1.783525   0.000000
 Stoichiometry    C6H12N2O2
 Framework group  C1[X(C6H12N2O2)]
 Deg. of freedom    60
 Full point group                 C1      NOp   1
 RotChk:  IX=0 Diff= 2.91D-15
 Largest Abelian subgroup         C1      NOp   1
 Largest concise Abelian subgroup C1      NOp   1
                         Standard orientation:                         
 ---------------------------------------------------------------------
 Center     Atomic      Atomic             Coordinates (Angstroms)
 Number     Number       Type             X           Y           Z
 ---------------------------------------------------------------------
      1          6           0       -3.371828   -1.144590    0.046331
      2          1           0       -4.136853   -0.743107    0.718594
      3          1           0       -2.953427   -2.053427    0.487917
      4          1           0       -3.868868   -1.401261   -0.894340
      5          6           0       -2.330617   -0.074664   -0.218533
      6          8           0       -2.626093    1.026706   -0.744816
      7          7           0       -1.052640   -0.379357    0.149347
      8          1           0       -0.792532   -1.280059    0.535089
      9          6           0        0.057518    0.538485   -0.073795
     10          1           0       -0.037551    0.953739   -1.086305
     11          6           0        0.050208    1.710517    0.935498
     12          1           0        0.146992    1.331622    1.957960
     13          1           0        0.871816    2.410012    0.742726
     14          1           0       -0.895358    2.248882    0.837798
     15          6           0        1.344312   -0.288901    0.032076
     16          8           0        1.337309   -1.442648    0.528674
     17          7           0        2.475596    0.316000   -0.424638
     18          1           0        2.405617    1.236978   -0.832393
     19          6           0        3.791752   -0.317957   -0.356394
     20          1           0        3.659849   -1.301082    0.097173
     21          1           0        4.220386   -0.439872   -1.356899
     22          1           0        4.481439    0.271273    0.257749
 ---------------------------------------------------------------------
 Rotational constants (GHZ):           2.8869990           0.6506039           0.5789512
 Leave Link  202 at Sat Jul 18 17:10:27 2020, MaxMem=   104857600 cpu:               0.0 elap:               0.0
 (Enter /opt/g16/g16/l601.exe)
 Copying SCF densities to generalized density rwf, IOpCl= 0 IROHF=0.

 **********************************************************************

            Population analysis using the SCF density.

 **********************************************************************

 Orbital symmetries:
       Occupied  (A) (A) (A) (A) (A) (A) (A) (A) (A) (A) (A) (A)
                 (A) (A) (A) (A) (A) (A) (A) (A) (A) (A) (A) (A)
                 (A) (A) (A) (A) (A) (A) (A) (A) (A) (A) (A) (A)
                 (A) (A) (A)
       Virtual   (A) (A) (A) (A) (A) (A) (A) (A) (A) (A) (A) (A)
                 (A) (A) (A) (A) (A) (A) (A) (A) (A) (A) (A) (A)
                 (A) (A) (A) (A) (A) (A) (A) (A) (A) (A) (A) (A)
                 (A) (A) (A) (A) (A) (A) (A) (A) (A) (A) (A) (A)
                 (A) (A) (A) (A) (A) (A) (A) (A) (A) (A) (A) (A)
                 (A) (A) (A) (A) (A) (A) (A) (A) (A) (A) (A) (A)
                 (A) (A) (A)
 The electronic state is 1-A.
 Alpha  occ. eigenvalues --  -19.12876 -19.10048 -14.37706 -14.35025 -10.30583
 Alpha  occ. eigenvalues --  -10.28625 -10.24158 -10.22527 -10.18254 -10.18212
 Alpha  occ. eigenvalues --   -1.05548  -1.02733  -0.94064  -0.92156  -0.78830
 Alpha  occ. eigenvalues --   -0.73511  -0.71840  -0.65714  -0.60777  -0.58116
 Alpha  occ. eigenvalues --   -0.54351  -0.48862  -0.47886  -0.46598  -0.45639
 Alpha  occ. eigenvalues --   -0.44735  -0.43215  -0.41835  -0.40892  -0.40207
 Alpha  occ. eigenvalues --   -0.38677  -0.38360  -0.37247  -0.36780  -0.33974
 Alpha  occ. eigenvalues --   -0.26842  -0.26746  -0.24480  -0.23792
 Alpha virt. eigenvalues --    0.00462   0.02745   0.05944   0.09651   0.11180
 Alpha virt. eigenvalues --    0.12886   0.13931   0.14502   0.15230   0.15623
 Alpha virt. eigenvalues --    0.15984   0.17636   0.17967   0.18248   0.18742
 Alpha virt. eigenvalues --    0.21476   0.22508   0.23632   0.27414   0.32879
 Alpha virt. eigenvalues --    0.33863   0.38812   0.42668   0.50263   0.52913
 Alpha virt. eigenvalues --    0.53208   0.53856   0.55873   0.56418   0.57670
 Alpha virt. eigenvalues --    0.58051   0.60581   0.62739   0.63519   0.66481
 Alpha virt. eigenvalues --    0.68505   0.70798   0.72768   0.73850   0.77245
 Alpha virt. eigenvalues --    0.77753   0.78940   0.80816   0.82712   0.86403
 Alpha virt. eigenvalues --    0.87928   0.88915   0.91259   0.92342   0.93112
 Alpha virt. eigenvalues --    0.93772   0.94775   0.95052   0.95899   0.96314
 Alpha virt. eigenvalues --    0.97998   0.99108   1.00348   1.03381   1.05957
 Alpha virt. eigenvalues --    1.07138   1.13350   1.15520   1.17930   1.21349
 Alpha virt. eigenvalues --    1.24400   1.30852   1.35204   1.41898   1.48973
 Alpha virt. eigenvalues --    1.61796   1.65016   1.75888   1.97509   1.98041
          Condensed to atoms (all electrons):
               1          2          3          4          5          6
     1  C    5.378544   0.363639   0.335449   0.361916   0.274152  -0.096641
     2  H    0.363639   0.533744  -0.027183  -0.024095  -0.025987   0.000907
     3  H    0.335449  -0.027183   0.590900  -0.026852  -0.024183   0.003227
     4  H    0.361916  -0.024095  -0.026852   0.532960  -0.024648   0.001286
     5  C    0.274152  -0.025987  -0.024183  -0.024648   4.668474   0.564561
     6  O   -0.096641   0.000907   0.003227   0.001286   0.564561   8.127698
     7  N   -0.152500   0.002336   0.007091   0.002359   0.063404  -0.132458
     8  H   -0.001487  -0.000040   0.002630   0.000020  -0.004625   0.002089
     9  C    0.007966  -0.000153   0.000234  -0.000217  -0.026009   0.010243
    10  H    0.000495  -0.000019  -0.000030   0.000038   0.001946   0.008939
    11  C   -0.000661   0.000044   0.000017  -0.000005  -0.007952  -0.007723
    12  H    0.000034  -0.000006  -0.000003   0.000001   0.000409  -0.000011
    13  H    0.000005  -0.000001  -0.000000   0.000000   0.000044   0.000015
    14  H    0.000284   0.000001  -0.000016  -0.000000   0.005705   0.011108
    15  C   -0.000190   0.000001  -0.000069   0.000004   0.008401   0.000436
    16  O   -0.000052  -0.000000  -0.000025   0.000000   0.000170  -0.000004
    17  N    0.000000  -0.000000  -0.000000  -0.000000  -0.000202  -0.000003
    18  H    0.000000  -0.000000   0.000000   0.000000   0.000008   0.000001
    19  C   -0.000000   0.000000  -0.000000   0.000000   0.000002   0.000000
    20  H    0.000000   0.000000  -0.000000   0.000000   0.000000   0.000000
    21  H    0.000000  -0.000000   0.000000  -0.000000  -0.000000   0.000000
    22  H    0.000000   0.000000  -0.000000  -0.000000  -0.000000   0.000000
               7          8          9         10         11         12
     1  C   -0.152500  -0.001487   0.007966   0.000495  -0.000661   0.000034
     2  H    0.002336  -0.000040  -0.000153  -0.000019   0.000044  -0.000006
     3  H    0.007091   0.002630   0.000234  -0.000030   0.000017  -0.000003
     4  H    0.002359   0.000020  -0.000217   0.000038  -0.000005   0.000001
     5  C    0.063404  -0.004625  -0.026009   0.001946  -0.007952   0.000409
     6  O   -0.132458   0.002089   0.010243   0.008939  -0.007723  -0.000011
     7  N    7.551361   0.285198   0.177592  -0.059604  -0.061872  -0.000548
     8  H    0.285198   0.376094  -0.057091   0.003925   0.003556   0.000735
     9  C    0.177592  -0.057091   5.384865   0.380111   0.309561  -0.037362
    10  H   -0.059604   0.003925   0.380111   0.566883  -0.046134   0.005296
    11  C   -0.061872   0.003556   0.309561  -0.046134   5.148668   0.371475
    12  H   -0.000548   0.000735  -0.037362   0.005296   0.371475   0.571941
    13  H    0.005487  -0.000092  -0.034486  -0.000240   0.352368  -0.029784
    14  H   -0.010056  -0.000250  -0.025633  -0.005568   0.369918  -0.027631
    15  C   -0.029602   0.003461   0.171817  -0.038074  -0.044906  -0.004103
    16  O   -0.013569   0.039210  -0.107261   0.001893  -0.000125   0.001230
    17  N    0.003955   0.002266  -0.151999   0.001906   0.004051  -0.000251
    18  H    0.000056  -0.000060   0.001346   0.001800   0.000355  -0.000012
    19  C   -0.000100   0.000005   0.004657  -0.000060  -0.000272   0.000002
    20  H    0.000005  -0.000035   0.001347  -0.000032  -0.000050  -0.000005
    21  H    0.000002   0.000000  -0.000149   0.000007  -0.000006   0.000000
    22  H    0.000001  -0.000000  -0.000089  -0.000006   0.000036  -0.000002
              13         14         15         16         17         18
     1  C    0.000005   0.000284  -0.000190  -0.000052   0.000000   0.000000
     2  H   -0.000001   0.000001   0.000001  -0.000000  -0.000000  -0.000000
     3  H   -0.000000  -0.000016  -0.000069  -0.000025  -0.000000   0.000000
     4  H    0.000000  -0.000000   0.000004   0.000000  -0.000000   0.000000
     5  C    0.000044   0.005705   0.008401   0.000170  -0.000202   0.000008
     6  O    0.000015   0.011108   0.000436  -0.000004  -0.000003   0.000001
     7  N    0.005487  -0.010056  -0.029602  -0.013569   0.003955   0.000056
     8  H   -0.000092  -0.000250   0.003461   0.039210   0.002266  -0.000060
     9  C   -0.034486  -0.025633   0.171817  -0.107261  -0.151999   0.001346
    10  H   -0.000240  -0.005568  -0.038074   0.001893   0.001906   0.001800
    11  C    0.352368   0.369918  -0.044906  -0.000125   0.004051   0.000355
    12  H   -0.029784  -0.027631  -0.004103   0.001230  -0.000251  -0.000012
    13  H    0.609784  -0.026695  -0.003249  -0.000028   0.003315   0.002487
    14  H   -0.026695   0.515652   0.004000  -0.000086   0.000047  -0.000089
    15  C   -0.003249   0.004000   4.787539   0.567263   0.080168  -0.013965
    16  O   -0.000028  -0.000086   0.567263   8.114625  -0.127219   0.002856
    17  N    0.003315   0.000047   0.080168  -0.127219   7.436567   0.306749
    18  H    0.002487  -0.000089  -0.013965   0.002856   0.306749   0.402720
    19  C   -0.000031   0.000003  -0.031927  -0.008287   0.211518  -0.028092
    20  H   -0.000000   0.000001   0.002279   0.017847  -0.043955   0.003405
    21  H    0.000003   0.000000   0.001655   0.000458  -0.044862  -0.001391
    22  H   -0.000011  -0.000001   0.002227   0.000454  -0.045774  -0.001048
              19         20         21         22
     1  C   -0.000000   0.000000   0.000000   0.000000
     2  H    0.000000   0.000000  -0.000000   0.000000
     3  H   -0.000000  -0.000000   0.000000  -0.000000
     4  H    0.000000   0.000000  -0.000000  -0.000000
     5  C    0.000002   0.000000  -0.000000  -0.000000
     6  O    0.000000   0.000000   0.000000   0.000000
     7  N   -0.000100   0.000005   0.000002   0.000001
     8  H    0.000005  -0.000035   0.000000  -0.000000
     9  C    0.004657   0.001347  -0.000149  -0.000089
    10  H   -0.000060  -0.000032   0.000007  -0.000006
    11  C   -0.000272  -0.000050  -0.000006   0.000036
    12  H    0.000002  -0.000005   0.000000  -0.000002
    13  H   -0.000031  -0.000000   0.000003  -0.000011
    14  H    0.000003   0.000001   0.000000  -0.000001
    15  C   -0.031927   0.002279   0.001655   0.002227
    16  O   -0.008287   0.017847   0.000458   0.000454
    17  N    0.211518  -0.043955  -0.044862  -0.045774
    18  H   -0.028092   0.003405  -0.001391  -0.001048
    19  C    4.959220   0.381229   0.381448   0.380799
    20  H    0.381229   0.483366  -0.024988  -0.025369
    21  H    0.381448  -0.024988   0.569531  -0.039429
    22  H    0.380799  -0.025369  -0.039429   0.571255
 Mulliken charges:
               1
     1  C   -0.470954
     2  H    0.176811
     3  H    0.138813
     4  H    0.177233
     5  C    0.526328
     6  O   -0.493669
     7  N   -0.638537
     8  H    0.344490
     9  C   -0.009292
    10  H    0.176525
    11  C   -0.390344
    12  H    0.148593
    13  H    0.121107
    14  H    0.189305
    15  C    0.536832
    16  O   -0.489351
    17  N   -0.636278
    18  H    0.322873
    19  C   -0.250116
    20  H    0.204955
    21  H    0.157719
    22  H    0.156957
 Sum of Mulliken charges =  -0.00000
 Mulliken charges with hydrogens summed into heavy atoms:
               1
     1  C    0.021903
     5  C    0.526328
     6  O   -0.493669
     7  N   -0.294047
     9  C    0.167232
    11  C    0.068661
    15  C    0.536832
    16  O   -0.489351
    17  N   -0.313405
    19  C    0.269515
 Electronic spatial extent (au):  <R**2>=           2003.6747
 Charge=             -0.0000 electrons
 Dipole moment (field-independent basis, Debye):
    X=              3.3578    Y=              0.3328    Z=              0.0137  Tot=              3.3742
 Quadrupole moment (field-independent basis, Debye-Ang):
   XX=            -54.4914   YY=            -63.2416   ZZ=            -61.2020
   XY=             13.0336   XZ=             -7.6520   YZ=              2.3141
 Traceless Quadrupole moment (field-independent basis, Debye-Ang):
   XX=              5.1536   YY=             -3.5966   ZZ=             -1.5570
   XY=             13.0336   XZ=             -7.6520   YZ=              2.3141
 Octapole moment (field-independent basis, Debye-Ang**2):
  XXX=             47.2484  YYY=              3.6649  ZZZ=             -1.6908  XYY=              3.5856
  XXY=            -19.8262  XXZ=              2.9443  XZZ=              3.3261  YZZ=             -0.3483
  YYZ=             -1.3370  XYZ=             -6.3578
 Hexadecapole moment (field-independent basis, Debye-Ang**3):
 XXXX=          -1828.0636 YYYY=           -425.9379 ZZZZ=           -166.3859 XXXY=             57.8016
 XXXZ=            -50.2268 YYYX=             14.3898 YYYZ=             -4.2748 ZZZX=              0.1493
 ZZZY=             -4.6920 XXYY=           -412.8309 XXZZ=           -360.7327 YYZZ=            -99.9377
 XXYZ=             16.1380 YYXZ=            -13.9027 ZZXY=              6.1470
 N-N= 5.465637235392D+02 E-N=-2.250192618283D+03  KE= 4.928775359264D+02
 No NMR shielding tensors so no spin-rotation constants.
 Leave Link  601 at Sat Jul 18 17:10:28 2020, MaxMem=   104857600 cpu:               0.2 elap:               0.2
 (Enter /opt/g16/g16/l9999.exe)
 1\1\GINC-VEDA\FOpt\RB3LYP\6-31G\C6H12N2O2\HIRANO\18-Jul-2020\0\\#p opt
  rb3lyp/6-31g geom=connectivity\\ACE+ALA+NME\\0,1\C,-2.8069359715,-0.5
 721195466,-1.7111233742\H,-3.4662295444,-1.445871846,-1.7278407528\H,-
 1.9463760568,-0.7648991099,-2.3578967714\H,-3.3754032717,0.2710593796,
 -2.1157029829\C,-2.4204347214,-0.2673859788,-0.2769793035\O,-3.2770833
 956,0.0023459664,0.600911923\N,-1.0857817446,-0.3039169229,0.003671248
 2\H,-0.3807552675,-0.4775432442,-0.7037956209\C,-0.5645594619,-0.00064
 00331,1.3307088496\H,-1.084764043,0.8896129891,1.7095067573\C,-0.80161
 13529,-1.162266775,2.3240941676\H,-0.2926203953,-2.0675482518,1.978043
 6886\H,-0.4315406893,-0.9143931617,3.3256429712\H,-1.8753741364,-1.353
 3711035,2.3872683021\C,0.9294950919,0.3006431745,1.1614627964\O,1.5375
 008659,0.0040450494,0.1030908629\N,1.5400082703,0.8834905104,2.2300407
 363\H,0.9860269614,1.1152422969,3.041679319\C,2.9684843838,1.196443097
 9,2.248559706\H,3.3849904689,0.8878035702,1.2889141114\H,3.1325420726,
 2.2712210853,2.3809926617\H,3.4797935776,0.6558479638,3.0525191643\\Ve
 rsion=ES64L-G16RevA.03\State=1-A\HF=-495.7072485\RMSD=9.614e-09\RMSF=1
 .926e-06\Dipole=1.0947803,0.2527663,0.7070296\Quadrupole=-7.6839551,1.
 2190783,6.4648768,3.6962594,8.2322813,2.8663246\PG=C01 [X(C6H12N2O2)]\
 \@


 I WISH TO HAVE NO CONNECTION WITH ANY SHIP THAT DOES NOT SAIL FAST,
 FOR I INTEND TO GO IN HARM'S WAY.
     -- JOHN PAUL JONES, USN 1747-1792
 Job cpu time:       0 days  0 hours 32 minutes 11.3 seconds.
 Elapsed time:       0 days  0 hours 32 minutes  9.3 seconds.
 File lengths (MBytes):  RWF=     10 Int=      0 D2E=      0 Chk=      2 Scr=      1
 Normal termination of Gaussian 16 at Sat Jul 18 17:10:28 2020.
