 Entering Gaussian System, Link 0=/opt/g16/g16/g16
 Initial command:
 /opt/g16/g16/l1.exe "/tmp/scratch/Gau-27530.inp" -scrdir="/tmp/scratch/"
 Entering Link 1 = /opt/g16/g16/l1.exe PID=     27531.
  
 Copyright (c) 1988,1990,1992,1993,1995,1998,2003,2009,2016,
            Gaussian, Inc.  All Rights Reserved.
  
 This is part of the Gaussian(R) 16 program.  It is based on
 the Gaussian(R) 09 system (copyright 2009, Gaussian, Inc.),
 the Gaussian(R) 03 system (copyright 2003, Gaussian, Inc.),
 the Gaussian(R) 98 system (copyright 1998, Gaussian, Inc.),
 the Gaussian(R) 94 system (copyright 1995, Gaussian, Inc.),
 the Gaussian 92(TM) system (copyright 1992, Gaussian, Inc.),
 the Gaussian 90(TM) system (copyright 1990, Gaussian, Inc.),
 the Gaussian 88(TM) system (copyright 1988, Gaussian, Inc.),
 the Gaussian 86(TM) system (copyright 1986, Carnegie Mellon
 University), and the Gaussian 82(TM) system (copyright 1983,
 Carnegie Mellon University). Gaussian is a federally registered
 trademark of Gaussian, Inc.
  
 This software contains proprietary and confidential information,
 including trade secrets, belonging to Gaussian, Inc.
  
 This software is provided under written license and may be
 used, copied, transmitted, or stored only in accord with that
 written license.
  
 The following legend is applicable only to US Government
 contracts under FAR:
  
                    RESTRICTED RIGHTS LEGEND
  
 Use, reproduction and disclosure by the US Government is
 subject to restrictions as set forth in subparagraphs (a)
 and (c) of the Commercial Computer Software - Restricted
 Rights clause in FAR 52.227-19.
  
 Gaussian, Inc.
 340 Quinnipiac St., Bldg. 40, Wallingford CT 06492
  
  
 ---------------------------------------------------------------
 Warning -- This program may not be used in any manner that
 competes with the business of Gaussian, Inc. or will provide
 assistance to any competitor of Gaussian, Inc.  The licensee
 of this program is prohibited from giving any competitor of
 Gaussian, Inc. access to this program.  By using this program,
 the user acknowledges that Gaussian, Inc. is engaged in the
 business of creating and licensing software in the field of
 computational chemistry and represents and warrants to the
 licensee that it is not a competitor of Gaussian, Inc. and that
 it will not use this program in any manner prohibited above.
 ---------------------------------------------------------------
  

 Cite this work as:
 Gaussian 16, Revision A.03,
 M. J. Frisch, G. W. Trucks, H. B. Schlegel, G. E. Scuseria, 
 M. A. Robb, J. R. Cheeseman, G. Scalmani, V. Barone, 
 G. A. Petersson, H. Nakatsuji, X. Li, M. Caricato, A. V. Marenich, 
 J. Bloino, B. G. Janesko, R. Gomperts, B. Mennucci, H. P. Hratchian, 
 J. V. Ortiz, A. F. Izmaylov, J. L. Sonnenberg, D. Williams-Young, 
 F. Ding, F. Lipparini, F. Egidi, J. Goings, B. Peng, A. Petrone, 
 T. Henderson, D. Ranasinghe, V. G. Zakrzewski, J. Gao, N. Rega, 
 G. Zheng, W. Liang, M. Hada, M. Ehara, K. Toyota, R. Fukuda, 
 J. Hasegawa, M. Ishida, T. Nakajima, Y. Honda, O. Kitao, H. Nakai, 
 T. Vreven, K. Throssell, J. A. Montgomery, Jr., J. E. Peralta, 
 F. Ogliaro, M. J. Bearpark, J. J. Heyd, E. N. Brothers, K. N. Kudin, 
 V. N. Staroverov, T. A. Keith, R. Kobayashi, J. Normand, 
 K. Raghavachari, A. P. Rendell, J. C. Burant, S. S. Iyengar, 
 J. Tomasi, M. Cossi, J. M. Millam, M. Klene, C. Adamo, R. Cammi, 
 J. W. Ochterski, R. L. Martin, K. Morokuma, O. Farkas, 
 J. B. Foresman, and D. J. Fox, Gaussian, Inc., Wallingford CT, 2016.
 
 ******************************************
 Gaussian 16:  ES64L-G16RevA.03 25-Dec-2016
                18-Jul-2020 
 ******************************************
 -------------------------------------
 #p opt rb3lyp/6-31g geom=connectivity
 -------------------------------------
 1/18=20,19=15,26=3,38=1,57=2/1,3;
 2/9=110,12=2,17=6,18=5,40=1/2;
 3/5=1,6=6,11=2,25=1,30=1,71=1,74=-5,116=1/1,2,3;
 4//1;
 5/5=2,38=5/2;
 6/7=2,8=2,9=2,10=2,28=1/1;
 7//1,2,3,16;
 1/18=20,19=15,26=3/3(2);
 2/9=110/2;
 99//99;
 2/9=110/2;
 3/5=1,6=6,11=2,25=1,30=1,71=1,74=-5,116=1/1,2,3;
 4/5=5,16=3,69=1/1;
 5/5=2,38=5/2;
 7//1,2,3,16;
 1/18=20,19=15,26=3/3(-5);
 2/9=110/2;
 6/7=2,8=2,9=2,10=2,19=2,28=1/1;
 99/9=1/99;
 Leave Link    1 at Sat Jul 18 16:38:46 2020, MaxMem=           0 cpu:               0.0 elap:               0.0
 (Enter /opt/g16/g16/l101.exe)
 -----------
 ACE+ALA+NME
 -----------
 Symbolic Z-matrix:
 Charge =  0 Multiplicity = 1
 C                    -2.16214  -0.12519   2.75008 
 H                    -1.57764  -0.48632   3.60575 
 H                    -2.29804  -0.9634    2.05774 
 H                    -3.13853   0.20064   3.109 
 C                    -1.48992   1.06595   2.08919 
 O                    -2.01427   2.20142   2.10212 
 N                    -0.27001   0.85691   1.49412 
 H                     0.0714   -0.09944   1.46698 
 C                     0.60651   1.83842   0.86542 
 H                    -0.00104   2.60788   0.37307 
 C                     1.56473   2.51274   1.87866 
 H                     2.19784   1.7532    2.34758 
 H                     2.20858   3.25154   1.38756 
 H                     0.99357   3.01716   2.6638 
 C                     1.4298    1.09054  -0.19737 
 O                     1.86855   1.68691  -1.20735 
 N                     1.59906  -0.24538   0.0166 
 H                     1.24396  -0.65509   0.86816 
 C                     2.29734  -1.11112  -0.93412 
 H                     2.61444  -0.48921  -1.77223 
 H                     3.18023  -1.56744  -0.47397 
 H                     1.63704  -1.90312  -1.30359 
 
 ITRead=  0  0  0  0  0  0  0  0  0  0  0  0  0  0  0  0  0  0  0  0
 ITRead=  0  0
 MicOpt= -1 -1 -1 -1 -1 -1 -1 -1 -1 -1 -1 -1 -1 -1 -1 -1 -1 -1 -1 -1
 MicOpt= -1 -1
 NAtoms=     22 NQM=       22 NQMF=       0 NMMI=      0 NMMIF=      0
                NMic=       0 NMicF=      0.
                    Isotopes and Nuclear Properties:
 (Nuclear quadrupole moments (NQMom) in fm**2, nuclear magnetic moments (NMagM)
  in nuclear magnetons)

  Atom         1           2           3           4           5           6           7           8           9          10
 IAtWgt=          12           1           1           1          12          16          14           1          12           1
 AtmWgt=  12.0000000   1.0078250   1.0078250   1.0078250  12.0000000  15.9949146  14.0030740   1.0078250  12.0000000   1.0078250
 NucSpn=           0           1           1           1           0           0           2           1           0           1
 AtZEff=  -0.0000000  -0.0000000  -0.0000000  -0.0000000  -0.0000000  -0.0000000  -0.0000000  -0.0000000  -0.0000000  -0.0000000
 NQMom=    0.0000000   0.0000000   0.0000000   0.0000000   0.0000000   0.0000000   2.0440000   0.0000000   0.0000000   0.0000000
 NMagM=    0.0000000   2.7928460   2.7928460   2.7928460   0.0000000   0.0000000   0.4037610   2.7928460   0.0000000   2.7928460
 AtZNuc=   6.0000000   1.0000000   1.0000000   1.0000000   6.0000000   8.0000000   7.0000000   1.0000000   6.0000000   1.0000000

  Atom        11          12          13          14          15          16          17          18          19          20
 IAtWgt=          12           1           1           1          12          16          14           1          12           1
 AtmWgt=  12.0000000   1.0078250   1.0078250   1.0078250  12.0000000  15.9949146  14.0030740   1.0078250  12.0000000   1.0078250
 NucSpn=           0           1           1           1           0           0           2           1           0           1
 AtZEff=  -0.0000000  -0.0000000  -0.0000000  -0.0000000  -0.0000000  -0.0000000  -0.0000000  -0.0000000  -0.0000000  -0.0000000
 NQMom=    0.0000000   0.0000000   0.0000000   0.0000000   0.0000000   0.0000000   2.0440000   0.0000000   0.0000000   0.0000000
 NMagM=    0.0000000   2.7928460   2.7928460   2.7928460   0.0000000   0.0000000   0.4037610   2.7928460   0.0000000   2.7928460
 AtZNuc=   6.0000000   1.0000000   1.0000000   1.0000000   6.0000000   8.0000000   7.0000000   1.0000000   6.0000000   1.0000000

  Atom        21          22
 IAtWgt=           1           1
 AtmWgt=   1.0078250   1.0078250
 NucSpn=           1           1
 AtZEff=  -0.0000000  -0.0000000
 NQMom=    0.0000000   0.0000000
 NMagM=    2.7928460   2.7928460
 AtZNuc=   1.0000000   1.0000000
 Leave Link  101 at Sat Jul 18 16:38:46 2020, MaxMem=   104857600 cpu:               0.2 elap:               0.2
 (Enter /opt/g16/g16/l103.exe)

 GradGradGradGradGradGradGradGradGradGradGradGradGradGradGradGradGradGrad
 Berny optimization.
 Initialization pass.
                           ----------------------------
                           !    Initial Parameters    !
                           ! (Angstroms and Degrees)  !
 --------------------------                            --------------------------
 ! Name  Definition              Value          Derivative Info.                !
 --------------------------------------------------------------------------------
 ! R1    R(1,2)                  1.0974         estimate D2E/DX2                !
 ! R2    R(1,3)                  1.0956         estimate D2E/DX2                !
 ! R3    R(1,4)                  1.0901         estimate D2E/DX2                !
 ! R4    R(1,5)                  1.519          estimate D2E/DX2                !
 ! R5    R(5,6)                  1.2508         estimate D2E/DX2                !
 ! R6    R(5,7)                  1.3733         estimate D2E/DX2                !
 ! R7    R(7,8)                  1.0158         estimate D2E/DX2                !
 ! R8    R(7,9)                  1.4584         estimate D2E/DX2                !
 ! R9    R(9,10)                 1.0971         estimate D2E/DX2                !
 ! R10   R(9,11)                 1.549          estimate D2E/DX2                !
 ! R11   R(9,15)                 1.5384         estimate D2E/DX2                !
 ! R12   R(11,12)                1.0944         estimate D2E/DX2                !
 ! R13   R(11,13)                1.0961         estimate D2E/DX2                !
 ! R14   R(11,14)                1.0941         estimate D2E/DX2                !
 ! R15   R(15,16)                1.2523         estimate D2E/DX2                !
 ! R16   R(15,17)                1.3635         estimate D2E/DX2                !
 ! R17   R(17,18)                1.0095         estimate D2E/DX2                !
 ! R18   R(17,19)                1.4632         estimate D2E/DX2                !
 ! R19   R(19,20)                1.0908         estimate D2E/DX2                !
 ! R20   R(19,21)                1.0952         estimate D2E/DX2                !
 ! R21   R(19,22)                1.0953         estimate D2E/DX2                !
 ! A1    A(2,1,3)              107.8802         estimate D2E/DX2                !
 ! A2    A(2,1,4)              108.5844         estimate D2E/DX2                !
 ! A3    A(2,1,5)              111.1975         estimate D2E/DX2                !
 ! A4    A(3,1,4)              109.0043         estimate D2E/DX2                !
 ! A5    A(3,1,5)              112.3261         estimate D2E/DX2                !
 ! A6    A(4,1,5)              107.7724         estimate D2E/DX2                !
 ! A7    A(1,5,6)              121.4562         estimate D2E/DX2                !
 ! A8    A(1,5,7)              117.5328         estimate D2E/DX2                !
 ! A9    A(6,5,7)              121.0017         estimate D2E/DX2                !
 ! A10   A(5,7,8)              116.9641         estimate D2E/DX2                !
 ! A11   A(5,7,9)              128.187          estimate D2E/DX2                !
 ! A12   A(8,7,9)              114.8405         estimate D2E/DX2                !
 ! A13   A(7,9,10)             109.4307         estimate D2E/DX2                !
 ! A14   A(7,9,11)             112.5053         estimate D2E/DX2                !
 ! A15   A(7,9,15)             106.9944         estimate D2E/DX2                !
 ! A16   A(10,9,11)            109.317          estimate D2E/DX2                !
 ! A17   A(10,9,15)            109.1047         estimate D2E/DX2                !
 ! A18   A(11,9,15)            109.4183         estimate D2E/DX2                !
 ! A19   A(9,11,12)            109.6346         estimate D2E/DX2                !
 ! A20   A(9,11,13)            111.3268         estimate D2E/DX2                !
 ! A21   A(9,11,14)            110.3137         estimate D2E/DX2                !
 ! A22   A(12,11,13)           108.6595         estimate D2E/DX2                !
 ! A23   A(12,11,14)           108.3306         estimate D2E/DX2                !
 ! A24   A(13,11,14)           108.5049         estimate D2E/DX2                !
 ! A25   A(9,15,16)            120.8747         estimate D2E/DX2                !
 ! A26   A(9,15,17)            115.7428         estimate D2E/DX2                !
 ! A27   A(16,15,17)           123.3438         estimate D2E/DX2                !
 ! A28   A(15,17,18)           119.1008         estimate D2E/DX2                !
 ! A29   A(15,17,19)           122.4787         estimate D2E/DX2                !
 ! A30   A(18,17,19)           118.4133         estimate D2E/DX2                !
 ! A31   A(17,19,20)           107.4959         estimate D2E/DX2                !
 ! A32   A(17,19,21)           110.9923         estimate D2E/DX2                !
 ! A33   A(17,19,22)           111.0576         estimate D2E/DX2                !
 ! A34   A(20,19,21)           109.0289         estimate D2E/DX2                !
 ! A35   A(20,19,22)           109.1672         estimate D2E/DX2                !
 ! A36   A(21,19,22)           109.0515         estimate D2E/DX2                !
 ! D1    D(2,1,5,6)           -114.1424         estimate D2E/DX2                !
 ! D2    D(2,1,5,7)             64.762          estimate D2E/DX2                !
 ! D3    D(3,1,5,6)            124.8428         estimate D2E/DX2                !
 ! D4    D(3,1,5,7)            -56.2527         estimate D2E/DX2                !
 ! D5    D(4,1,5,6)              4.7568         estimate D2E/DX2                !
 ! D6    D(4,1,5,7)           -176.3387         estimate D2E/DX2                !
 ! D7    D(1,5,7,8)              4.883          estimate D2E/DX2                !
 ! D8    D(1,5,7,9)           -176.237          estimate D2E/DX2                !
 ! D9    D(6,5,7,8)           -176.2072         estimate D2E/DX2                !
 ! D10   D(6,5,7,9)              2.6728         estimate D2E/DX2                !
 ! D11   D(5,7,9,10)           -34.6332         estimate D2E/DX2                !
 ! D12   D(5,7,9,11)            87.0918         estimate D2E/DX2                !
 ! D13   D(5,7,9,15)          -152.7143         estimate D2E/DX2                !
 ! D14   D(8,7,9,10)           144.2668         estimate D2E/DX2                !
 ! D15   D(8,7,9,11)           -94.0082         estimate D2E/DX2                !
 ! D16   D(8,7,9,15)            26.1857         estimate D2E/DX2                !
 ! D17   D(7,9,11,12)           60.1769         estimate D2E/DX2                !
 ! D18   D(7,9,11,13)         -179.561          estimate D2E/DX2                !
 ! D19   D(7,9,11,14)          -59.0408         estimate D2E/DX2                !
 ! D20   D(10,9,11,12)        -178.0334         estimate D2E/DX2                !
 ! D21   D(10,9,11,13)         -57.7714         estimate D2E/DX2                !
 ! D22   D(10,9,11,14)          62.7489         estimate D2E/DX2                !
 ! D23   D(15,9,11,12)         -58.607          estimate D2E/DX2                !
 ! D24   D(15,9,11,13)          61.655          estimate D2E/DX2                !
 ! D25   D(15,9,11,14)        -177.8247         estimate D2E/DX2                !
 ! D26   D(7,9,15,16)          152.6058         estimate D2E/DX2                !
 ! D27   D(7,9,15,17)          -25.2077         estimate D2E/DX2                !
 ! D28   D(10,9,15,16)          34.3121         estimate D2E/DX2                !
 ! D29   D(10,9,15,17)        -143.5015         estimate D2E/DX2                !
 ! D30   D(11,9,15,16)         -85.2451         estimate D2E/DX2                !
 ! D31   D(11,9,15,17)          96.9413         estimate D2E/DX2                !
 ! D32   D(9,15,17,18)          -4.1946         estimate D2E/DX2                !
 ! D33   D(9,15,17,19)         176.795          estimate D2E/DX2                !
 ! D34   D(16,15,17,18)        178.0519         estimate D2E/DX2                !
 ! D35   D(16,15,17,19)         -0.9586         estimate D2E/DX2                !
 ! D36   D(15,17,19,20)         -0.1482         estimate D2E/DX2                !
 ! D37   D(15,17,19,21)        119.0029         estimate D2E/DX2                !
 ! D38   D(15,17,19,22)       -119.5053         estimate D2E/DX2                !
 ! D39   D(18,17,19,20)       -179.1652         estimate D2E/DX2                !
 ! D40   D(18,17,19,21)        -60.014          estimate D2E/DX2                !
 ! D41   D(18,17,19,22)         61.4777         estimate D2E/DX2                !
 --------------------------------------------------------------------------------
 Trust Radius=3.00D-01 FncErr=1.00D-07 GrdErr=1.00D-06 EigMax=2.50D+02 EigMin=1.00D-04
 Number of steps in this run=    108 maximum allowed number of steps=    132.
 GradGradGradGradGradGradGradGradGradGradGradGradGradGradGradGradGradGrad

 Leave Link  103 at Sat Jul 18 16:38:46 2020, MaxMem=   104857600 cpu:               0.0 elap:               0.0
 (Enter /opt/g16/g16/l202.exe)
                          Input orientation:                          
 ---------------------------------------------------------------------
 Center     Atomic      Atomic             Coordinates (Angstroms)
 Number     Number       Type             X           Y           Z
 ---------------------------------------------------------------------
      1          6           0       -2.162139   -0.125190    2.750076
      2          1           0       -1.577637   -0.486317    3.605747
      3          1           0       -2.298036   -0.963405    2.057738
      4          1           0       -3.138533    0.200644    3.109004
      5          6           0       -1.489920    1.065953    2.089190
      6          8           0       -2.014268    2.201419    2.102121
      7          7           0       -0.270006    0.856909    1.494120
      8          1           0        0.071403   -0.099439    1.466979
      9          6           0        0.606506    1.838422    0.865419
     10          1           0       -0.001036    2.607885    0.373075
     11          6           0        1.564727    2.512739    1.878659
     12          1           0        2.197842    1.753204    2.347578
     13          1           0        2.208578    3.251537    1.387562
     14          1           0        0.993573    3.017165    2.663797
     15          6           0        1.429798    1.090543   -0.197372
     16          8           0        1.868553    1.686908   -1.207355
     17          7           0        1.599064   -0.245380    0.016603
     18          1           0        1.243958   -0.655087    0.868161
     19          6           0        2.297343   -1.111120   -0.934118
     20          1           0        2.614437   -0.489211   -1.772228
     21          1           0        3.180230   -1.567444   -0.473966
     22          1           0        1.637042   -1.903123   -1.303595
 ---------------------------------------------------------------------
                    Distance matrix (angstroms):
                    1          2          3          4          5
     1  C    0.000000
     2  H    1.097373   0.000000
     3  H    1.095630   1.772828   0.000000
     4  H    1.090111   1.776251   1.779495   0.000000
     5  C    1.519036   2.171907   2.184567   2.122900   0.000000
     6  O    2.419674   3.110541   3.177830   2.506170   1.250757
     7  N    2.474290   2.823671   2.782824   3.356632   1.373316
     8  H    2.575988   2.728247   2.590304   3.618008   2.045242
     9  C    3.882409   4.205269   4.208114   4.662757   2.547415
    10  H    4.217843   4.744462   4.568195   4.808742   2.745793
    11  C    4.648394   4.674571   5.199671   5.383325   3.386500
    12  H    4.764431   4.566474   5.260883   5.609555   3.760142
    13  H    5.688752   5.764314   6.206806   6.392410   4.352924
    14  H    4.454251   4.446658   5.200666   5.020487   3.210161
    15  C    4.802861   5.098516   4.816738   5.709088   3.708601
    16  O    5.932237   6.305956   5.919920   6.775754   4.746802
    17  N    4.651126   4.799108   4.457486   5.675096   3.944241
    18  H    3.927327   3.935004   3.749117   4.995986   3.453546
    19  C    5.867906   6.001351   5.485483   6.900456   5.312569
    20  H    6.587824   6.818805   6.247071   7.576212   5.845924
    21  H    6.404331   6.360046   6.065129   7.476000   5.942630
    22  H    5.833273   6.036815   5.259893   6.833958   5.486738
                    6          7          8          9         10
     6  O    0.000000
     7  N    2.284693   0.000000
     8  H    3.169760   1.015824   0.000000
     9  C    2.920557   1.458392   2.098455   0.000000
    10  H    2.684757   2.096427   2.920869   1.097080   0.000000
    11  C    3.599453   2.501178   3.036935   1.549047   2.174270
    12  H    4.242996   2.760799   2.954571   2.176329   3.076395
    13  H    4.409735   3.448040   3.975282   2.199128   2.515127
    14  H    3.166706   2.762513   3.463523   2.184815   2.530645
    15  C    4.287576   2.409370   2.455882   1.538395   2.162180
    16  O    5.127733   3.544051   3.684134   2.431483   2.615591
    17  N    4.836567   2.625171   2.111549   2.459246   3.290671
    18  H    4.505366   2.229360   1.429060   2.573702   3.527337
    19  C    6.227491   4.044843   3.426889   3.846695   4.563145
    20  H    6.608705   4.560821   4.136594   4.050537   4.586396
    21  H    6.915444   4.653491   3.948051   4.474140   5.317076
    22  H    6.463609   4.368274   3.657947   4.445873   5.083671
                   11         12         13         14         15
    11  C    0.000000
    12  H    1.094355   0.000000
    13  H    1.096149   1.779536   0.000000
    14  H    1.094123   1.774220   1.777623   0.000000
    15  C    2.520070   2.739668   2.790773   3.476845   0.000000
    16  O    3.209017   3.570766   3.049143   4.185808   1.252287
    17  N    3.328011   3.128309   3.805190   4.244815   1.363498
    18  H    3.340527   2.983025   4.057337   4.095416   2.053563
    19  C    4.645513   4.357038   4.942758   5.629169   2.478457
    20  H    4.841753   4.709010   4.913471   5.882193   2.525701
    21  H    4.979215   4.466866   5.256613   5.970399   3.194591
    22  H    5.443511   5.197527   5.842902   6.353226   3.198236
                   16         17         18         19         20
    16  O    0.000000
    17  N    2.303136   0.000000
    18  H    3.191054   1.009511   0.000000
    19  C    2.843850   1.463205   2.136772   0.000000
    20  H    2.368739   2.071316   2.979493   1.090756   0.000000
    21  H    3.584574   2.118631   2.526430   1.095199   1.779942
    22  H    3.598776   2.119546   2.535475   1.095345   1.781591
                   21         22
    21  H    0.000000
    22  H    1.783927   0.000000
 Stoichiometry    C6H12N2O2
 Framework group  C1[X(C6H12N2O2)]
 Deg. of freedom    60
 Full point group                 C1      NOp   1
 Largest Abelian subgroup         C1      NOp   1
 Largest concise Abelian subgroup C1      NOp   1
                         Standard orientation:                         
 ---------------------------------------------------------------------
 Center     Atomic      Atomic             Coordinates (Angstroms)
 Number     Number       Type             X           Y           Z
 ---------------------------------------------------------------------
      1          6           0        2.910797    1.544671    0.177758
      2          1           0        2.931271    1.688192    1.265513
      3          1           0        2.448200    2.431256   -0.269876
      4          1           0        3.936747    1.460218   -0.180901
      5          6           0        2.182871    0.264200   -0.193708
      6          8           0        2.781621   -0.695819   -0.726863
      7          7           0        0.843142    0.187979    0.098379
      8          1           0        0.405779    1.023460    0.475981
      9          6           0       -0.056507   -0.945182   -0.084601
     10          1           0        0.233037   -1.499188   -0.986170
     11          6           0       -0.054224   -1.906268    1.130247
     12          1           0       -0.376258   -1.366969    2.026385
     13          1           0       -0.730230   -2.753985    0.969199
     14          1           0        0.953626   -2.294279    1.305718
     15          6           0       -1.470070   -0.370180   -0.279211
     16          8           0       -2.333048   -0.995077   -0.937235
     17          7           0       -1.688910    0.860562    0.265315
     18          1           0       -0.957271    1.293844    0.809449
     19          6           0       -2.956640    1.574445    0.109749
     20          1           0       -3.615632    0.945567   -0.490242
     21          1           0       -3.425759    1.757479    1.082317
     22          1           0       -2.809078    2.531669   -0.401843
 ---------------------------------------------------------------------
 Rotational constants (GHZ):           2.0759021           0.7553027           0.6259962
 Leave Link  202 at Sat Jul 18 16:38:46 2020, MaxMem=   104857600 cpu:               0.0 elap:               0.0
 (Enter /opt/g16/g16/l301.exe)
 Standard basis: 6-31G (6D, 7F)
 Ernie: Thresh=  0.10000D-02 Tol=  0.10000D-05 Strict=F.
 There are   114 symmetry adapted cartesian basis functions of A   symmetry.
 There are   114 symmetry adapted basis functions of A   symmetry.
   114 basis functions,   268 primitive gaussians,   114 cartesian basis functions
    39 alpha electrons       39 beta electrons
       nuclear repulsion energy       548.6320351132 Hartrees.
 IExCor=  402 DFT=T Ex+Corr=B3LYP ExCW=0 ScaHFX=  0.200000
 ScaDFX=  0.800000  0.720000  1.000000  0.810000 ScalE2=  1.000000  1.000000
 IRadAn=      5 IRanWt=     -1 IRanGd=            0 ICorTp=0 IEmpDi=  4
 NAtoms=   22 NActive=   22 NUniq=   22 SFac= 1.00D+00 NAtFMM=   60 NAOKFM=F Big=F
 Integral buffers will be    131072 words long.
 Raffenetti 2 integral format.
 Two-electron integral symmetry is turned on.
 Leave Link  301 at Sat Jul 18 16:38:46 2020, MaxMem=   104857600 cpu:               0.1 elap:               0.1
 (Enter /opt/g16/g16/l302.exe)
 NPDir=0 NMtPBC=     1 NCelOv=     1 NCel=       1 NClECP=     1 NCelD=      1
         NCelK=      1 NCelE2=     1 NClLst=     1 CellRange=     0.0.
 One-electron integrals computed using PRISM.
 One-electron integral symmetry used in STVInt
 NBasis=   114 RedAO= T EigKep=  3.66D-03  NBF=   114
 NBsUse=   114 1.00D-06 EigRej= -1.00D+00 NBFU=   114
 Precomputing XC quadrature grid using
 IXCGrd= 4 IRadAn=           5 IRanWt=          -1 IRanGd=           0 AccXCQ= 0.00D+00.
 Generated NRdTot=       0 NPtTot=           0 NUsed=           0 NTot=          32
 NSgBfM=   114   114   114   114   114 MxSgAt=    22 MxSgA2=    22.
 Leave Link  302 at Sat Jul 18 16:38:47 2020, MaxMem=   104857600 cpu:               0.9 elap:               0.9
 (Enter /opt/g16/g16/l303.exe)
 DipDrv:  MaxL=1.
 Leave Link  303 at Sat Jul 18 16:38:47 2020, MaxMem=   104857600 cpu:               0.0 elap:               0.0
 (Enter /opt/g16/g16/l401.exe)
 ExpMin= 1.61D-01 ExpMax= 5.48D+03 ExpMxC= 8.25D+02 IAcc=3 IRadAn=         5 AccDes= 0.00D+00
 Harris functional with IExCor=  402 and IRadAn=       5 diagonalized for initial guess.
 HarFok:  IExCor=  402 AccDes= 0.00D+00 IRadAn=         5 IDoV= 1 UseB2=F ITyADJ=14
 ICtDFT=  3500011 ScaDFX=  1.000000  1.000000  1.000000  1.000000
 FoFCou: FMM=F IPFlag=           0 FMFlag=      100000 FMFlg1=           0
         NFxFlg=           0 DoJE=T BraDBF=F KetDBF=T FulRan=T
         wScrn=  0.000000 ICntrl=       500 IOpCl=  0 I1Cent=   200000004 NGrid=           0
         NMat0=    1 NMatS0=      1 NMatT0=    0 NMatD0=    1 NMtDS0=    0 NMtDT0=    0
 Petite list used in FoFCou.
 Harris En= -495.733776356177    
 JPrj=0 DoOrth=F DoCkMO=F.
 Leave Link  401 at Sat Jul 18 16:38:53 2020, MaxMem=   104857600 cpu:               5.9 elap:               5.9
 (Enter /opt/g16/g16/l502.exe)
 Keep R1 ints in memory in canonical form, NReq=22427569.
 FoFCou: FMM=F IPFlag=           0 FMFlag=           0 FMFlg1=           0
         NFxFlg=           0 DoJE=F BraDBF=F KetDBF=F FulRan=T
         wScrn=  0.000000 ICntrl=       600 IOpCl=  0 I1Cent=           0 NGrid=           0
         NMat0=    1 NMatS0=   6555 NMatT0=    0 NMatD0=    1 NMtDS0=    0 NMtDT0=    0
 Symmetry not used in FoFCou.
 Two-electron integral symmetry not used.
 Closed shell SCF:
 Using DIIS extrapolation, IDIIS=  1040.
 NGot=   104857600 LenX=    83341928 LenY=    83328491
 Requested convergence on RMS density matrix=1.00D-08 within 128 cycles.
 Requested convergence on MAX density matrix=1.00D-06.
 Requested convergence on             energy=1.00D-06.
 No special actions if energy rises.
 Integral accuracy reduced to 1.0D-05 until final iterations.

 Cycle   1  Pass 0  IDiag  1:
 E= -495.328023499019    
 DIIS: error= 3.39D-02 at cycle   1 NSaved=   1.
 NSaved= 1 IEnMin= 1 EnMin= -495.328023499019     IErMin= 1 ErrMin= 3.39D-02
 ErrMax= 3.39D-02  0.00D+00 EMaxC= 1.00D-01 BMatC= 3.73D-01 BMatP= 3.73D-01
 IDIUse=3 WtCom= 6.61D-01 WtEn= 3.39D-01
 Coeff-Com:  0.100D+01
 Coeff-En:   0.100D+01
 Coeff:      0.100D+01
 Gap=     0.226 Goal=   None    Shift=    0.000
 GapD=    0.226 DampG=1.000 DampE=0.500 DampFc=0.5000 IDamp=-1.
 Damping current iteration by 5.00D-01
 RMSDP=2.28D-02 MaxDP=5.93D-01              OVMax= 4.20D-01

 Cycle   2  Pass 0  IDiag  1:
 E= -495.322144956966     Delta-E=        0.005878542052 Rises=F Damp=T
 DIIS: error= 3.07D-02 at cycle   2 NSaved=   2.
 NSaved= 2 IEnMin= 1 EnMin= -495.328023499019     IErMin= 2 ErrMin= 3.07D-02
 ErrMax= 3.07D-02  0.00D+00 EMaxC= 1.00D-01 BMatC= 1.29D-01 BMatP= 3.73D-01
 IDIUse=3 WtCom= 6.93D-01 WtEn= 3.07D-01
 Coeff-Com:  0.341D+00 0.659D+00
 Coeff-En:   0.506D+00 0.494D+00
 Coeff:      0.392D+00 0.608D+00
 Gap=     0.264 Goal=   None    Shift=    0.000
 RMSDP=7.83D-03 MaxDP=1.94D-01 DE= 5.88D-03 OVMax= 2.54D-01

 Cycle   3  Pass 0  IDiag  1:
 E= -495.608237615159     Delta-E=       -0.286092658193 Rises=F Damp=F
 DIIS: error= 2.28D-02 at cycle   3 NSaved=   3.
 NSaved= 3 IEnMin= 3 EnMin= -495.608237615159     IErMin= 3 ErrMin= 2.28D-02
 ErrMax= 2.28D-02  0.00D+00 EMaxC= 1.00D-01 BMatC= 7.31D-02 BMatP= 1.29D-01
 IDIUse=3 WtCom= 7.72D-01 WtEn= 2.28D-01
 Coeff-Com:  0.170D+00 0.406D+00 0.424D+00
 Coeff-En:   0.000D+00 0.000D+00 0.100D+01
 Coeff:      0.131D+00 0.314D+00 0.555D+00
 Gap=     0.260 Goal=   None    Shift=    0.000
 RMSDP=3.81D-03 MaxDP=6.17D-02 DE=-2.86D-01 OVMax= 1.08D-01

 Cycle   4  Pass 0  IDiag  1:
 E= -495.662077121077     Delta-E=       -0.053839505917 Rises=F Damp=F
 DIIS: error= 1.35D-02 at cycle   4 NSaved=   4.
 NSaved= 4 IEnMin= 4 EnMin= -495.662077121077     IErMin= 4 ErrMin= 1.35D-02
 ErrMax= 1.35D-02  0.00D+00 EMaxC= 1.00D-01 BMatC= 2.01D-02 BMatP= 7.31D-02
 IDIUse=3 WtCom= 8.65D-01 WtEn= 1.35D-01
 Coeff-Com:  0.525D-01 0.501D-01 0.335D+00 0.562D+00
 Coeff-En:   0.000D+00 0.000D+00 0.232D+00 0.768D+00
 Coeff:      0.454D-01 0.434D-01 0.321D+00 0.590D+00
 Gap=     0.252 Goal=   None    Shift=    0.000
 RMSDP=1.52D-03 MaxDP=2.81D-02 DE=-5.38D-02 OVMax= 3.94D-02

 Cycle   5  Pass 0  IDiag  1:
 E= -495.679032986993     Delta-E=       -0.016955865917 Rises=F Damp=F
 DIIS: error= 2.56D-03 at cycle   5 NSaved=   5.
 NSaved= 5 IEnMin= 5 EnMin= -495.679032986993     IErMin= 5 ErrMin= 2.56D-03
 ErrMax= 2.56D-03  0.00D+00 EMaxC= 1.00D-01 BMatC= 6.27D-04 BMatP= 2.01D-02
 IDIUse=3 WtCom= 9.74D-01 WtEn= 2.56D-02
 Coeff-Com:  0.100D-01-0.796D-02 0.138D+00 0.331D+00 0.529D+00
 Coeff-En:   0.000D+00 0.000D+00 0.000D+00 0.000D+00 0.100D+01
 Coeff:      0.974D-02-0.776D-02 0.134D+00 0.323D+00 0.541D+00
 Gap=     0.249 Goal=   None    Shift=    0.000
 RMSDP=2.51D-04 MaxDP=5.12D-03 DE=-1.70D-02 OVMax= 8.71D-03

 Cycle   6  Pass 0  IDiag  1:
 E= -495.679560426541     Delta-E=       -0.000527439548 Rises=F Damp=F
 DIIS: error= 8.37D-04 at cycle   6 NSaved=   6.
 NSaved= 6 IEnMin= 6 EnMin= -495.679560426541     IErMin= 6 ErrMin= 8.37D-04
 ErrMax= 8.37D-04  0.00D+00 EMaxC= 1.00D-01 BMatC= 5.04D-05 BMatP= 6.27D-04
 IDIUse=3 WtCom= 9.92D-01 WtEn= 8.37D-03
 Coeff-Com:  0.273D-02-0.820D-02 0.459D-01 0.114D+00 0.277D+00 0.568D+00
 Coeff-En:   0.000D+00 0.000D+00 0.000D+00 0.000D+00 0.174D-01 0.983D+00
 Coeff:      0.271D-02-0.813D-02 0.455D-01 0.113D+00 0.275D+00 0.572D+00
 Gap=     0.249 Goal=   None    Shift=    0.000
 RMSDP=8.41D-05 MaxDP=1.95D-03 DE=-5.27D-04 OVMax= 2.28D-03

 Cycle   7  Pass 0  IDiag  1:
 E= -495.679595198377     Delta-E=       -0.000034771837 Rises=F Damp=F
 DIIS: error= 3.93D-04 at cycle   7 NSaved=   7.
 NSaved= 7 IEnMin= 7 EnMin= -495.679595198377     IErMin= 7 ErrMin= 3.93D-04
 ErrMax= 3.93D-04  0.00D+00 EMaxC= 1.00D-01 BMatC= 1.14D-05 BMatP= 5.04D-05
 IDIUse=3 WtCom= 9.96D-01 WtEn= 3.93D-03
 Coeff-Com:  0.943D-03-0.453D-02 0.126D-01 0.289D-01 0.118D+00 0.404D+00
 Coeff-Com:  0.440D+00
 Coeff-En:   0.000D+00 0.000D+00 0.000D+00 0.000D+00 0.000D+00 0.781D-01
 Coeff-En:   0.922D+00
 Coeff:      0.939D-03-0.451D-02 0.125D-01 0.288D-01 0.117D+00 0.403D+00
 Coeff:      0.442D+00
 Gap=     0.249 Goal=   None    Shift=    0.000
 RMSDP=3.80D-05 MaxDP=8.90D-04 DE=-3.48D-05 OVMax= 8.52D-04

 Cycle   8  Pass 0  IDiag  1:
 E= -495.679604006060     Delta-E=       -0.000008807682 Rises=F Damp=F
 DIIS: error= 7.66D-05 at cycle   8 NSaved=   8.
 NSaved= 8 IEnMin= 8 EnMin= -495.679604006060     IErMin= 8 ErrMin= 7.66D-05
 ErrMax= 7.66D-05  0.00D+00 EMaxC= 1.00D-01 BMatC= 7.01D-07 BMatP= 1.14D-05
 IDIUse=1 WtCom= 1.00D+00 WtEn= 0.00D+00
 Coeff-Com:  0.443D-03-0.153D-02 0.210D-02 0.228D-02 0.353D-01 0.165D+00
 Coeff-Com:  0.254D+00 0.542D+00
 Coeff:      0.443D-03-0.153D-02 0.210D-02 0.228D-02 0.353D-01 0.165D+00
 Coeff:      0.254D+00 0.542D+00
 Gap=     0.249 Goal=   None    Shift=    0.000
 RMSDP=9.83D-06 MaxDP=1.84D-04 DE=-8.81D-06 OVMax= 1.97D-04

 Initial convergence to 1.0D-05 achieved.  Increase integral accuracy.
 Cycle   9  Pass 1  IDiag  1:
 E= -495.679612011315     Delta-E=       -0.000008005255 Rises=F Damp=F
 DIIS: error= 1.20D-05 at cycle   1 NSaved=   1.
 NSaved= 1 IEnMin= 1 EnMin= -495.679612011315     IErMin= 1 ErrMin= 1.20D-05
 ErrMax= 1.20D-05  0.00D+00 EMaxC= 1.00D-01 BMatC= 1.96D-08 BMatP= 1.96D-08
 IDIUse=1 WtCom= 1.00D+00 WtEn= 0.00D+00
 Coeff-Com:  0.100D+01
 Coeff:      0.100D+01
 Gap=     0.249 Goal=   None    Shift=    0.000
 RMSDP=9.83D-06 MaxDP=1.84D-04 DE=-8.01D-06 OVMax= 8.16D-05

 Cycle  10  Pass 1  IDiag  1:
 E= -495.679611968191     Delta-E=        0.000000043124 Rises=F Damp=F
 DIIS: error= 2.45D-05 at cycle   2 NSaved=   2.
 NSaved= 2 IEnMin= 1 EnMin= -495.679612011315     IErMin= 1 ErrMin= 1.20D-05
 ErrMax= 2.45D-05  0.00D+00 EMaxC= 1.00D-01 BMatC= 7.57D-08 BMatP= 1.96D-08
 IDIUse=1 WtCom= 1.00D+00 WtEn= 0.00D+00
 Coeff-Com:  0.673D+00 0.327D+00
 Coeff:      0.673D+00 0.327D+00
 Gap=     0.249 Goal=   None    Shift=    0.000
 RMSDP=2.96D-06 MaxDP=6.27D-05 DE= 4.31D-08 OVMax= 7.52D-05

 Cycle  11  Pass 1  IDiag  1:
 E= -495.679612029509     Delta-E=       -0.000000061317 Rises=F Damp=F
 DIIS: error= 3.97D-06 at cycle   3 NSaved=   3.
 NSaved= 3 IEnMin= 3 EnMin= -495.679612029509     IErMin= 3 ErrMin= 3.97D-06
 ErrMax= 3.97D-06  0.00D+00 EMaxC= 1.00D-01 BMatC= 2.12D-09 BMatP= 1.96D-08
 IDIUse=1 WtCom= 1.00D+00 WtEn= 0.00D+00
 Coeff-Com:  0.237D+00 0.178D+00 0.585D+00
 Coeff:      0.237D+00 0.178D+00 0.585D+00
 Gap=     0.249 Goal=   None    Shift=    0.000
 RMSDP=6.86D-07 MaxDP=1.19D-05 DE=-6.13D-08 OVMax= 1.13D-05

 Cycle  12  Pass 1  IDiag  1:
 E= -495.679612031197     Delta-E=       -0.000000001688 Rises=F Damp=F
 DIIS: error= 1.00D-06 at cycle   4 NSaved=   4.
 NSaved= 4 IEnMin= 4 EnMin= -495.679612031197     IErMin= 4 ErrMin= 1.00D-06
 ErrMax= 1.00D-06  0.00D+00 EMaxC= 1.00D-01 BMatC= 2.28D-10 BMatP= 2.12D-09
 IDIUse=1 WtCom= 1.00D+00 WtEn= 0.00D+00
 Coeff-Com: -0.219D-02 0.334D-01 0.295D+00 0.674D+00
 Coeff:     -0.219D-02 0.334D-01 0.295D+00 0.674D+00
 Gap=     0.249 Goal=   None    Shift=    0.000
 RMSDP=1.57D-07 MaxDP=2.58D-06 DE=-1.69D-09 OVMax= 2.68D-06

 Cycle  13  Pass 1  IDiag  1:
 E= -495.679612031380     Delta-E=       -0.000000000182 Rises=F Damp=F
 DIIS: error= 3.04D-07 at cycle   5 NSaved=   5.
 NSaved= 5 IEnMin= 5 EnMin= -495.679612031380     IErMin= 5 ErrMin= 3.04D-07
 ErrMax= 3.04D-07  0.00D+00 EMaxC= 1.00D-01 BMatC= 2.08D-11 BMatP= 2.28D-10
 IDIUse=1 WtCom= 1.00D+00 WtEn= 0.00D+00
 Coeff-Com: -0.988D-02 0.113D-01 0.141D+00 0.371D+00 0.486D+00
 Coeff:     -0.988D-02 0.113D-01 0.141D+00 0.371D+00 0.486D+00
 Gap=     0.249 Goal=   None    Shift=    0.000
 RMSDP=5.80D-08 MaxDP=8.45D-07 DE=-1.82D-10 OVMax= 1.22D-06

 Cycle  14  Pass 1  IDiag  1:
 E= -495.679612031401     Delta-E=       -0.000000000021 Rises=F Damp=F
 DIIS: error= 1.57D-07 at cycle   6 NSaved=   6.
 NSaved= 6 IEnMin= 6 EnMin= -495.679612031401     IErMin= 6 ErrMin= 1.57D-07
 ErrMax= 1.57D-07  0.00D+00 EMaxC= 1.00D-01 BMatC= 3.15D-12 BMatP= 2.08D-11
 IDIUse=1 WtCom= 1.00D+00 WtEn= 0.00D+00
 Coeff-Com: -0.634D-02 0.375D-02 0.594D-01 0.166D+00 0.312D+00 0.465D+00
 Coeff:     -0.634D-02 0.375D-02 0.594D-01 0.166D+00 0.312D+00 0.465D+00
 Gap=     0.249 Goal=   None    Shift=    0.000
 RMSDP=2.12D-08 MaxDP=3.76D-07 DE=-2.14D-11 OVMax= 6.22D-07

 Cycle  15  Pass 1  IDiag  1:
 E= -495.679612031410     Delta-E=       -0.000000000009 Rises=F Damp=F
 DIIS: error= 6.10D-08 at cycle   7 NSaved=   7.
 NSaved= 7 IEnMin= 7 EnMin= -495.679612031410     IErMin= 7 ErrMin= 6.10D-08
 ErrMax= 6.10D-08  0.00D+00 EMaxC= 1.00D-01 BMatC= 3.66D-13 BMatP= 3.15D-12
 IDIUse=1 WtCom= 1.00D+00 WtEn= 0.00D+00
 Coeff-Com: -0.260D-02 0.949D-03 0.169D-01 0.509D-01 0.130D+00 0.297D+00
 Coeff-Com:  0.507D+00
 Coeff:     -0.260D-02 0.949D-03 0.169D-01 0.509D-01 0.130D+00 0.297D+00
 Coeff:      0.507D+00
 Gap=     0.249 Goal=   None    Shift=    0.000
 RMSDP=6.42D-09 MaxDP=1.43D-07 DE=-8.87D-12 OVMax= 1.39D-07

 SCF Done:  E(RB3LYP) =  -495.679612031     A.U. after   15 cycles
            NFock= 15  Conv=0.64D-08     -V/T= 2.0056
 KE= 4.929162902792D+02 PE=-2.253832074819D+03 EE= 7.166041373955D+02
 Leave Link  502 at Sat Jul 18 16:39:55 2020, MaxMem=   104857600 cpu:              61.9 elap:              61.9
 (Enter /opt/g16/g16/l601.exe)
 Copying SCF densities to generalized density rwf, IOpCl= 0 IROHF=0.

 **********************************************************************

            Population analysis using the SCF density.

 **********************************************************************

 Orbital symmetries:
       Occupied  (A) (A) (A) (A) (A) (A) (A) (A) (A) (A) (A) (A)
                 (A) (A) (A) (A) (A) (A) (A) (A) (A) (A) (A) (A)
                 (A) (A) (A) (A) (A) (A) (A) (A) (A) (A) (A) (A)
                 (A) (A) (A)
       Virtual   (A) (A) (A) (A) (A) (A) (A) (A) (A) (A) (A) (A)
                 (A) (A) (A) (A) (A) (A) (A) (A) (A) (A) (A) (A)
                 (A) (A) (A) (A) (A) (A) (A) (A) (A) (A) (A) (A)
                 (A) (A) (A) (A) (A) (A) (A) (A) (A) (A) (A) (A)
                 (A) (A) (A) (A) (A) (A) (A) (A) (A) (A) (A) (A)
                 (A) (A) (A) (A) (A) (A) (A) (A) (A) (A) (A) (A)
                 (A) (A) (A)
 The electronic state is 1-A.
 Alpha  occ. eigenvalues --  -19.12113 -19.11357 -14.38066 -14.36866 -10.30351
 Alpha  occ. eigenvalues --  -10.30050 -10.24509 -10.22793 -10.19711 -10.18426
 Alpha  occ. eigenvalues --   -1.05080  -1.04042  -0.95727  -0.92636  -0.79324
 Alpha  occ. eigenvalues --   -0.74137  -0.73065  -0.66045  -0.62609  -0.58820
 Alpha  occ. eigenvalues --   -0.55334  -0.49100  -0.48316  -0.47415  -0.45828
 Alpha  occ. eigenvalues --   -0.45565  -0.43608  -0.42246  -0.41707  -0.40424
 Alpha  occ. eigenvalues --   -0.39467  -0.38416  -0.37660  -0.37080  -0.35178
 Alpha  occ. eigenvalues --   -0.27301  -0.26429  -0.25135  -0.24387
 Alpha virt. eigenvalues --    0.00545   0.01515   0.02372   0.10072   0.11063
 Alpha virt. eigenvalues --    0.11504   0.13751   0.14312   0.14960   0.15209
 Alpha virt. eigenvalues --    0.15878   0.16142   0.17073   0.18126   0.18908
 Alpha virt. eigenvalues --    0.20429   0.22016   0.25115   0.26721   0.31045
 Alpha virt. eigenvalues --    0.34116   0.38206   0.41171   0.50281   0.52354
 Alpha virt. eigenvalues --    0.52568   0.53834   0.54329   0.56374   0.56733
 Alpha virt. eigenvalues --    0.58760   0.59462   0.61205   0.63362   0.66156
 Alpha virt. eigenvalues --    0.67255   0.68241   0.71414   0.74121   0.76264
 Alpha virt. eigenvalues --    0.77195   0.77494   0.79811   0.82620   0.87182
 Alpha virt. eigenvalues --    0.88315   0.89826   0.90556   0.91198   0.92336
 Alpha virt. eigenvalues --    0.93348   0.94232   0.94545   0.95613   0.96505
 Alpha virt. eigenvalues --    0.97488   0.98355   0.99916   1.02773   1.04776
 Alpha virt. eigenvalues --    1.08424   1.10901   1.12880   1.18429   1.20919
 Alpha virt. eigenvalues --    1.25313   1.29666   1.37418   1.40017   1.51683
 Alpha virt. eigenvalues --    1.58173   1.63242   1.71087   1.92103   2.00704
          Condensed to atoms (all electrons):
               1          2          3          4          5          6
     1  C    5.442984   0.350095   0.341767   0.355008   0.258986  -0.099866
     2  H    0.350095   0.558743  -0.029490  -0.021500  -0.025149   0.001322
     3  H    0.341767  -0.029490   0.568217  -0.021847  -0.021639   0.001950
     4  H    0.355008  -0.021500  -0.021847   0.506699  -0.020738   0.005835
     5  C    0.258986  -0.025149  -0.021639  -0.020738   4.687711   0.600745
     6  O   -0.099866   0.001322   0.001950   0.005835   0.600745   8.069246
     7  N   -0.169332   0.003348   0.003956   0.006201   0.017401  -0.138188
     8  H    0.002737   0.000601   0.001625  -0.000210  -0.005851   0.002916
     9  C    0.005287  -0.000162  -0.000091  -0.000102  -0.016621   0.006808
    10  H    0.000519  -0.000009  -0.000025   0.000002   0.001704   0.007792
    11  C   -0.000376   0.000057   0.000001   0.000003  -0.005387  -0.001573
    12  H    0.000015  -0.000002   0.000000   0.000000  -0.000175  -0.000024
    13  H    0.000002  -0.000000   0.000000  -0.000000   0.000002  -0.000020
    14  H    0.000078  -0.000021  -0.000000   0.000000   0.003876   0.002266
    15  C   -0.000043  -0.000007  -0.000002   0.000000   0.006212   0.000452
    16  O    0.000000   0.000000  -0.000000  -0.000000  -0.000051   0.000000
    17  N   -0.000144   0.000002   0.000010   0.000000   0.000546  -0.000012
    18  H    0.000039  -0.000024  -0.000050   0.000000   0.000547   0.000021
    19  C    0.000000  -0.000000  -0.000000   0.000000   0.000014   0.000000
    20  H   -0.000000   0.000000   0.000000   0.000000   0.000001  -0.000000
    21  H   -0.000000   0.000000   0.000000   0.000000   0.000001  -0.000000
    22  H    0.000000  -0.000000   0.000000  -0.000000  -0.000004  -0.000000
               7          8          9         10         11         12
     1  C   -0.169332   0.002737   0.005287   0.000519  -0.000376   0.000015
     2  H    0.003348   0.000601  -0.000162  -0.000009   0.000057  -0.000002
     3  H    0.003956   0.001625  -0.000091  -0.000025   0.000001   0.000000
     4  H    0.006201  -0.000210  -0.000102   0.000002   0.000003   0.000000
     5  C    0.017401  -0.005851  -0.016621   0.001704  -0.005387  -0.000175
     6  O   -0.138188   0.002916   0.006808   0.007792  -0.001573  -0.000024
     7  N    7.723188   0.276346   0.072047  -0.053066  -0.064913  -0.000912
     8  H    0.276346   0.451079  -0.043574   0.003630   0.003435   0.000925
     9  C    0.072047  -0.043574   5.433189   0.383588   0.315572  -0.037747
    10  H   -0.053066   0.003630   0.383588   0.508512  -0.036299   0.004907
    11  C   -0.064913   0.003435   0.315572  -0.036299   5.119082   0.365906
    12  H   -0.000912   0.000925  -0.037747   0.004907   0.365906   0.606575
    13  H    0.005381  -0.000111  -0.034336  -0.000820   0.365092  -0.028477
    14  H   -0.006407  -0.000195  -0.027399  -0.003828   0.373508  -0.031189
    15  C   -0.024769  -0.013514   0.210455  -0.030689  -0.048532  -0.008508
    16  O    0.002783   0.000045  -0.091893   0.002164   0.001018  -0.000261
    17  N    0.000024   0.008360  -0.177625   0.004215   0.000389   0.003965
    18  H   -0.008465   0.020764   0.003745   0.000301  -0.000453   0.000870
    19  C    0.000518  -0.000440   0.004272  -0.000074  -0.000184  -0.000093
    20  H   -0.000114   0.000004   0.001548  -0.000013  -0.000038  -0.000004
    21  H   -0.000010   0.000105  -0.000219  -0.000002   0.000033  -0.000015
    22  H    0.000043  -0.000171  -0.000021   0.000008  -0.000004   0.000003
              13         14         15         16         17         18
     1  C    0.000002   0.000078  -0.000043   0.000000  -0.000144   0.000039
     2  H   -0.000000  -0.000021  -0.000007   0.000000   0.000002  -0.000024
     3  H    0.000000  -0.000000  -0.000002  -0.000000   0.000010  -0.000050
     4  H   -0.000000   0.000000   0.000000  -0.000000   0.000000   0.000000
     5  C    0.000002   0.003876   0.006212  -0.000051   0.000546   0.000547
     6  O   -0.000020   0.002266   0.000452   0.000000  -0.000012   0.000021
     7  N    0.005381  -0.006407  -0.024769   0.002783   0.000024  -0.008465
     8  H   -0.000111  -0.000195  -0.013514   0.000045   0.008360   0.020764
     9  C   -0.034336  -0.027399   0.210455  -0.091893  -0.177625   0.003745
    10  H   -0.000820  -0.003828  -0.030689   0.002164   0.004215   0.000301
    11  C    0.365092   0.373508  -0.048532   0.001018   0.000389  -0.000453
    12  H   -0.028477  -0.031189  -0.008508  -0.000261   0.003965   0.000870
    13  H    0.549721  -0.026473   0.001701   0.002607   0.000302  -0.000045
    14  H   -0.026473   0.541995   0.004407  -0.000034  -0.000140  -0.000013
    15  C    0.001701   0.004407   4.769433   0.580554   0.055728  -0.014563
    16  O    0.002607  -0.000034   0.580554   8.080111  -0.124094   0.002906
    17  N    0.000302  -0.000140   0.055728  -0.124094   7.516124   0.286921
    18  H   -0.000045  -0.000013  -0.014563   0.002906   0.286921   0.429349
    19  C    0.000001   0.000004  -0.033769  -0.008842   0.207918  -0.024532
    20  H   -0.000004   0.000000   0.004194   0.019445  -0.045320   0.003387
    21  H    0.000001  -0.000000   0.002305   0.000435  -0.044294  -0.002690
    22  H   -0.000000   0.000000   0.001727   0.000484  -0.047036   0.000287
              19         20         21         22
     1  C    0.000000  -0.000000  -0.000000   0.000000
     2  H   -0.000000   0.000000   0.000000  -0.000000
     3  H   -0.000000   0.000000   0.000000   0.000000
     4  H    0.000000   0.000000   0.000000  -0.000000
     5  C    0.000014   0.000001   0.000001  -0.000004
     6  O    0.000000  -0.000000  -0.000000  -0.000000
     7  N    0.000518  -0.000114  -0.000010   0.000043
     8  H   -0.000440   0.000004   0.000105  -0.000171
     9  C    0.004272   0.001548  -0.000219  -0.000021
    10  H   -0.000074  -0.000013  -0.000002   0.000008
    11  C   -0.000184  -0.000038   0.000033  -0.000004
    12  H   -0.000093  -0.000004  -0.000015   0.000003
    13  H    0.000001  -0.000004   0.000001  -0.000000
    14  H    0.000004   0.000000  -0.000000   0.000000
    15  C   -0.033769   0.004194   0.002305   0.001727
    16  O   -0.008842   0.019445   0.000435   0.000484
    17  N    0.207918  -0.045320  -0.044294  -0.047036
    18  H   -0.024532   0.003387  -0.002690   0.000287
    19  C    4.958942   0.379491   0.380435   0.382497
    20  H    0.379491   0.477850  -0.024665  -0.024835
    21  H    0.380435  -0.024665   0.572105  -0.039714
    22  H    0.382497  -0.024835  -0.039714   0.570586
 Mulliken charges:
               1
     1  C   -0.487759
     2  H    0.162195
     3  H    0.155618
     4  H    0.190648
     5  C    0.517870
     6  O   -0.459671
     7  N   -0.645061
     8  H    0.291492
     9  C   -0.006722
    10  H    0.207483
    11  C   -0.386335
    12  H    0.124241
    13  H    0.165476
    14  H    0.169566
    15  C    0.537228
    16  O   -0.467377
    17  N   -0.645840
    18  H    0.301698
    19  C   -0.246158
    20  H    0.209072
    21  H    0.156188
    22  H    0.156149
 Sum of Mulliken charges =  -0.00000
 Mulliken charges with hydrogens summed into heavy atoms:
               1
     1  C    0.020702
     5  C    0.517870
     6  O   -0.459671
     7  N   -0.353569
     9  C    0.200761
    11  C    0.072949
    15  C    0.537228
    16  O   -0.467377
    17  N   -0.344143
    19  C    0.275251
 Electronic spatial extent (au):  <R**2>=           1887.1873
 Charge=             -0.0000 electrons
 Dipole moment (field-independent basis, Debye):
    X=             -0.8597    Y=              4.9505    Z=              3.7700  Tot=              6.2816
 Quadrupole moment (field-independent basis, Debye-Ang):
   XX=            -70.9186   YY=            -56.5112   ZZ=            -62.5043
   XY=             -0.5024   XZ=             -0.1631   YZ=             -2.0051
 Traceless Quadrupole moment (field-independent basis, Debye-Ang):
   XX=             -7.6072   YY=              6.8002   ZZ=              0.8070
   XY=             -0.5024   XZ=             -0.1631   YZ=             -2.0051
 Octapole moment (field-independent basis, Debye-Ang**2):
  XXX=            -18.5174  YYY=              3.7285  ZZZ=             -0.7049  XYY=             -1.0231
  XXY=             42.5517  XXZ=             21.7409  XZZ=              1.0761  YZZ=              3.5601
  YYZ=              4.5628  XYZ=              0.8437
 Hexadecapole moment (field-independent basis, Debye-Ang**3):
 XXXX=          -1656.7756 YYYY=           -576.1843 ZZZZ=           -202.3253 XXXY=              1.2960
 XXXZ=             12.3826 YYYX=            -11.9165 YYYZ=              0.0691 ZZZX=             -2.0190
 ZZZY=              7.6094 XXYY=           -368.0148 XXZZ=           -321.3604 YYZZ=           -132.8462
 XXYZ=            -22.9243 YYXZ=             -4.5614 ZZXY=             -4.9685
 N-N= 5.486320351132D+02 E-N=-2.253832075788D+03  KE= 4.929162902792D+02
 No NMR shielding tensors so no spin-rotation constants.
 Leave Link  601 at Sat Jul 18 16:39:55 2020, MaxMem=   104857600 cpu:               0.1 elap:               0.1
 (Enter /opt/g16/g16/l701.exe)
 ... and contract with generalized density number  0.
 Compute integral first derivatives.
 Leave Link  701 at Sat Jul 18 16:39:55 2020, MaxMem=   104857600 cpu:               0.1 elap:               0.1
 (Enter /opt/g16/g16/l702.exe)
 L702 exits ... SP integral derivatives will be done elsewhere.
 Leave Link  702 at Sat Jul 18 16:39:55 2020, MaxMem=   104857600 cpu:               0.0 elap:               0.0
 (Enter /opt/g16/g16/l703.exe)
 Integral derivatives from FoFJK, PRISM(SPDF).
 Compute integral first derivatives, UseDBF=F ICtDFT=           0.
 Calling FoFJK, ICntrl=      2127 FMM=F ISym2X=0 I1Cent= 0 IOpClX= 0 NMat=1 NMatS=1 NMatT=0.
 FoFJK:  IHMeth= 1 ICntrl=    2127 DoSepK=F KAlg= 0 I1Cent=           0 FoldK=F
 IRaf=         0 NMat=       1 IRICut=       1 DoRegI=T DoRafI=F ISym2E= 0 IDoP0=0 IntGTp=1.
 FoFCou: FMM=F IPFlag=           0 FMFlag=      100000 FMFlg1=         800
         NFxFlg=           0 DoJE=F BraDBF=F KetDBF=F FulRan=T
         wScrn=  0.000000 ICntrl=      2127 IOpCl=  0 I1Cent=           0 NGrid=           0
         NMat0=    1 NMatS0=      1 NMatT0=    0 NMatD0=    1 NMtDS0=    0 NMtDT0=    0
 Symmetry not used in FoFCou.
 Leave Link  703 at Sat Jul 18 16:40:10 2020, MaxMem=   104857600 cpu:              14.6 elap:              14.6
 (Enter /opt/g16/g16/l716.exe)
 Dipole        =-3.38244622D-01 1.94766805D+00 1.48321917D+00
 ***** Axes restored to original set *****
 -------------------------------------------------------------------
 Center     Atomic                   Forces (Hartrees/Bohr)
 Number     Number              X              Y              Z
 -------------------------------------------------------------------
      1        6           0.002885072   -0.001338572   -0.001131583
      2        1           0.000334583    0.000389047   -0.000342911
      3        1           0.000185341   -0.000280144   -0.000950087
      4        1          -0.000007713   -0.000183746   -0.000402990
      5        6          -0.000661539    0.015706197   -0.001711607
      6        8          -0.000435211    0.001097462    0.001024309
      7        7          -0.005543632   -0.020280844    0.012491941
      8        1          -0.016693300    0.010594824    0.007934678
      9        6           0.005140241    0.001120471    0.000580136
     10        1           0.001372674   -0.004391884   -0.000666529
     11        6          -0.001764396    0.000781177    0.001728118
     12        1           0.001567657   -0.000065787    0.001184525
     13        1          -0.001445010   -0.001785665   -0.001347515
     14        1          -0.001252792   -0.000040280   -0.000953453
     15        6          -0.009877588    0.014497060   -0.012166328
     16        8           0.002543724   -0.002731168    0.004955134
     17        7           0.009338021   -0.007940054   -0.004124721
     18        1           0.013282504   -0.005430011   -0.007265179
     19        6           0.001271788   -0.000241541    0.001276018
     20        1          -0.000254044    0.000550687    0.000138830
     21        1           0.000238083   -0.000138695   -0.000331398
     22        1          -0.000224464    0.000111468    0.000080614
 -------------------------------------------------------------------
 Cartesian Forces:  Max     0.020280844 RMS     0.005917821
 Leave Link  716 at Sat Jul 18 16:40:10 2020, MaxMem=   104857600 cpu:               0.0 elap:               0.0
 (Enter /opt/g16/g16/l103.exe)

 GradGradGradGradGradGradGradGradGradGradGradGradGradGradGradGradGradGrad
 Berny optimization.
 FormGI is forming the generalized inverse of G from B-inverse, IUseBI=4.
 GSVD:  received Info=                   1 from GESDD.
 Internal  Forces:  Max     0.052080015 RMS     0.011108985
 Search for a local minimum.
 Step number   1 out of a maximum of  108
 All quantities printed in internal units (Hartrees-Bohrs-Radians)
 RMS Force = .11109D-01 SwitMx=.10000D-02 MixMth= 1
 Mixed Optimization -- RFO/linear search
 Second derivative matrix not updated -- first step.
 ITU=  0
     Eigenvalues ---    0.00230   0.00258   0.00514   0.00856   0.00919
     Eigenvalues ---    0.01054   0.01124   0.01380   0.01388   0.02045
     Eigenvalues ---    0.02175   0.04689   0.04932   0.05449   0.05625
     Eigenvalues ---    0.06549   0.06965   0.07296   0.07427   0.07713
     Eigenvalues ---    0.15998   0.15998   0.16000   0.16000   0.16000
     Eigenvalues ---    0.16000   0.16000   0.16000   0.16000   0.16000
     Eigenvalues ---    0.16000   0.17191   0.17866   0.22000   0.22000
     Eigenvalues ---    0.24983   0.24996   0.25000   0.25000   0.27732
     Eigenvalues ---    0.28662   0.30460   0.33974   0.34007   0.34112
     Eigenvalues ---    0.34170   0.34202   0.34219   0.34314   0.34341
     Eigenvalues ---    0.34725   0.34800   0.36566   0.37166   0.45011
     Eigenvalues ---    0.46055   0.50345   0.52247   0.82397   0.82958
 RFO step:  Lambda=-5.53118408D-02 EMin= 2.30000000D-03
 Linear search not attempted -- first point.
 Maximum step size (   0.300) exceeded in Quadratic search.
    -- Step size scaled by   0.770
 Iteration  1 RMS(Cart)=  0.30734969 RMS(Int)=  0.01524192
 Iteration  2 RMS(Cart)=  0.04362580 RMS(Int)=  0.00087037
 Iteration  3 RMS(Cart)=  0.00114999 RMS(Int)=  0.00077695
 Iteration  4 RMS(Cart)=  0.00000039 RMS(Int)=  0.00077695
 ITry= 1 IFail=0 DXMaxC= 9.80D-01 DCOld= 1.00D+10 DXMaxT= 3.00D-01 DXLimC= 3.00D+00 Rises=F
 Variable       Old X    -DE/DX   Delta X   Delta X   Delta X     New X
                                 (Linear)    (Quad)   (Total)
    R1        2.07373  -0.00022   0.00000  -0.00042  -0.00042   2.07331
    R2        2.07044   0.00079   0.00000   0.00153   0.00153   2.07198
    R3        2.06001  -0.00018   0.00000  -0.00035  -0.00035   2.05967
    R4        2.87056  -0.00162   0.00000  -0.00347  -0.00347   2.86709
    R5        2.36359   0.00119   0.00000   0.00103   0.00103   2.36462
    R6        2.59519  -0.00122   0.00000  -0.00169  -0.00169   2.59350
    R7        1.91963  -0.01580   0.00000  -0.02406  -0.02406   1.89557
    R8        2.75596   0.01544   0.00000   0.02783   0.02783   2.78379
    R9        2.07318  -0.00354   0.00000  -0.00689  -0.00689   2.06629
   R10        2.92727  -0.00187   0.00000  -0.00433  -0.00433   2.92294
   R11        2.90714   0.02142   0.00000   0.04823   0.04823   2.95537
   R12        2.06803   0.00146   0.00000   0.00282   0.00282   2.07085
   R13        2.07142  -0.00145   0.00000  -0.00281  -0.00281   2.06861
   R14        2.06759  -0.00005   0.00000  -0.00009  -0.00009   2.06750
   R15        2.36648  -0.00441   0.00000  -0.00386  -0.00386   2.36262
   R16        2.57664   0.01415   0.00000   0.01885   0.01885   2.59549
   R17        1.90770  -0.00860   0.00000  -0.01283  -0.01283   1.89487
   R18        2.76506  -0.00043   0.00000  -0.00079  -0.00079   2.76427
   R19        2.06123   0.00013   0.00000   0.00026   0.00026   2.06149
   R20        2.06963   0.00011   0.00000   0.00021   0.00021   2.06984
   R21        2.06990   0.00003   0.00000   0.00005   0.00005   2.06996
    A1        1.88286   0.00057   0.00000   0.00153   0.00153   1.88439
    A2        1.89516   0.00046   0.00000   0.00235   0.00235   1.89750
    A3        1.94076  -0.00063   0.00000  -0.00220  -0.00220   1.93856
    A4        1.90248   0.00016   0.00000   0.00045   0.00045   1.90293
    A5        1.96046  -0.00090   0.00000  -0.00356  -0.00356   1.95690
    A6        1.88098   0.00038   0.00000   0.00165   0.00165   1.88263
    A7        2.11981   0.00412   0.00000   0.01039   0.01039   2.13020
    A8        2.05134  -0.00929   0.00000  -0.02339  -0.02340   2.02794
    A9        2.11188   0.00517   0.00000   0.01306   0.01306   2.12494
   A10        2.04141  -0.00020   0.00000  -0.01123  -0.01123   2.03018
   A11        2.23728  -0.02696   0.00000  -0.07539  -0.07539   2.16190
   A12        2.00434   0.02716   0.00000   0.08661   0.08661   2.09095
   A13        1.90993  -0.01287   0.00000  -0.06697  -0.06569   1.84423
   A14        1.96359  -0.01295   0.00000  -0.02285  -0.02601   1.93758
   A15        1.86740   0.04258   0.00000   0.17638   0.17771   2.04512
   A16        1.90794   0.01045   0.00000   0.00151  -0.00144   1.90650
   A17        1.90424  -0.01111   0.00000  -0.05851  -0.05693   1.84730
   A18        1.90971  -0.01597   0.00000  -0.02889  -0.03202   1.87769
   A19        1.91348   0.00291   0.00000   0.01145   0.01147   1.92496
   A20        1.94302  -0.00335   0.00000  -0.01297  -0.01299   1.93003
   A21        1.92534  -0.00190   0.00000  -0.00685  -0.00689   1.91845
   A22        1.89647   0.00020   0.00000   0.00079   0.00083   1.89730
   A23        1.89073   0.00022   0.00000   0.00279   0.00281   1.89353
   A24        1.89377   0.00201   0.00000   0.00521   0.00513   1.89890
   A25        2.10966  -0.02410   0.00000  -0.06002  -0.06121   2.04846
   A26        2.02009   0.05208   0.00000   0.13211   0.13094   2.15103
   A27        2.15276  -0.02770   0.00000  -0.06895  -0.07011   2.08265
   A28        2.07870   0.01482   0.00000   0.04982   0.04964   2.12835
   A29        2.13766  -0.00774   0.00000  -0.02172  -0.02187   2.11578
   A30        2.06670  -0.00712   0.00000  -0.02858  -0.02871   2.03800
   A31        1.87616  -0.00101   0.00000  -0.00392  -0.00392   1.87224
   A32        1.93718   0.00088   0.00000   0.00343   0.00343   1.94061
   A33        1.93832  -0.00034   0.00000  -0.00121  -0.00122   1.93711
   A34        1.90291   0.00010   0.00000   0.00035   0.00035   1.90327
   A35        1.90533   0.00037   0.00000   0.00073   0.00072   1.90605
   A36        1.90331   0.00001   0.00000   0.00057   0.00057   1.90388
    D1       -1.99216  -0.00033   0.00000  -0.00224  -0.00223  -1.99439
    D2        1.13031   0.00000   0.00000   0.00151   0.00152   1.13183
    D3        2.17892   0.00001   0.00000  -0.00016  -0.00016   2.17876
    D4       -0.98179   0.00034   0.00000   0.00359   0.00359  -0.97820
    D5        0.08302   0.00011   0.00000   0.00037   0.00037   0.08339
    D6       -3.07769   0.00043   0.00000   0.00412   0.00412  -3.07357
    D7        0.08523  -0.00143   0.00000  -0.01433  -0.01436   0.07086
    D8       -3.07592  -0.00133   0.00000  -0.01416  -0.01413  -3.09004
    D9       -3.07540  -0.00111   0.00000  -0.01062  -0.01065  -3.08605
   D10        0.04665  -0.00101   0.00000  -0.01045  -0.01042   0.03623
   D11       -0.60446   0.00244   0.00000   0.01355   0.01220  -0.59226
   D12        1.52004  -0.00202   0.00000  -0.04708  -0.04737   1.47267
   D13       -2.66537  -0.00146   0.00000   0.01956   0.02126  -2.64410
   D14        2.51793   0.00229   0.00000   0.01284   0.01145   2.52938
   D15       -1.64075  -0.00216   0.00000  -0.04780  -0.04813  -1.68888
   D16        0.45703  -0.00161   0.00000   0.01885   0.02051   0.47754
   D17        1.05029   0.01752   0.00000   0.09527   0.09452   1.14480
   D18       -3.13393   0.01755   0.00000   0.09551   0.09471  -3.03922
   D19       -1.03046   0.01660   0.00000   0.08891   0.08818  -0.94228
   D20       -3.10727  -0.00015   0.00000  -0.00418  -0.00424  -3.11151
   D21       -1.00830  -0.00013   0.00000  -0.00395  -0.00405  -1.01235
   D22        1.09517  -0.00107   0.00000  -0.01054  -0.01059   1.08459
   D23       -1.02289  -0.01700   0.00000  -0.09197  -0.09112  -1.11401
   D24        1.07608  -0.01697   0.00000  -0.09174  -0.09093   0.98515
   D25       -3.10363  -0.01792   0.00000  -0.09833  -0.09746   3.08210
   D26        2.66347  -0.00078   0.00000  -0.04839  -0.04953   2.61394
   D27       -0.43996  -0.00823   0.00000  -0.13593  -0.13738  -0.57734
   D28        0.59886  -0.00336   0.00000  -0.03619  -0.03509   0.56377
   D29       -2.50457  -0.01080   0.00000  -0.12374  -0.12294  -2.62752
   D30       -1.48781   0.00016   0.00000   0.01446   0.01496  -1.47285
   D31        1.69195  -0.00729   0.00000  -0.07309  -0.07289   1.61905
   D32       -0.07321  -0.00009   0.00000   0.00407   0.00339  -0.06982
   D33        3.08565   0.00296   0.00000   0.03703   0.03721   3.12286
   D34        3.10759  -0.00789   0.00000  -0.08625  -0.08643   3.02116
   D35       -0.01673  -0.00484   0.00000  -0.05329  -0.05262  -0.06935
   D36       -0.00259  -0.00158   0.00000  -0.01715  -0.01685  -0.01943
   D37        2.07699  -0.00157   0.00000  -0.01717  -0.01687   2.06013
   D38       -2.08576  -0.00120   0.00000  -0.01491  -0.01461  -2.10037
   D39       -3.12702   0.00125   0.00000   0.01484   0.01454  -3.11248
   D40       -1.04744   0.00126   0.00000   0.01483   0.01453  -1.03292
   D41        1.07299   0.00163   0.00000   0.01708   0.01678   1.08977
         Item               Value     Threshold  Converged?
 Maximum Force            0.052080     0.000450     NO 
 RMS     Force            0.011109     0.000300     NO 
 Maximum Displacement     0.980413     0.001800     NO 
 RMS     Displacement     0.337853     0.001200     NO 
 Predicted change in Energy=-3.174529D-02
 Lowest energy point so far.  Saving SCF results.
 GradGradGradGradGradGradGradGradGradGradGradGradGradGradGradGradGradGrad

 Leave Link  103 at Sat Jul 18 16:40:10 2020, MaxMem=   104857600 cpu:               0.0 elap:               0.0
 (Enter /opt/g16/g16/l202.exe)
                          Input orientation:                          
 ---------------------------------------------------------------------
 Center     Atomic      Atomic             Coordinates (Angstroms)
 Number     Number       Type             X           Y           Z
 ---------------------------------------------------------------------
      1          6           0       -2.396079    0.151118    2.965625
      2          1           0       -1.852130   -0.180302    3.858944
      3          1           0       -2.631775   -0.735299    2.364876
      4          1           0       -3.325932    0.625976    3.278396
      5          6           0       -1.591240    1.173054    2.184748
      6          8           0       -1.966848    2.360229    2.061071
      7          7           0       -0.415395    0.726661    1.635507
      8          1           0       -0.217568   -0.250927    1.742194
      9          6           0        0.525991    1.588094    0.899437
     10          1           0       -0.092669    2.323752    0.378228
     11          6           0        1.481407    2.321660    1.869750
     12          1           0        2.131609    1.601799    2.379575
     13          1           0        2.107346    3.036641    1.326348
     14          1           0        0.902945    2.862202    2.624860
     15          6           0        1.402546    0.909203   -0.203552
     16          8           0        1.742261    1.611327   -1.180655
     17          7           0        1.853652   -0.385120   -0.116018
     18          1           0        1.690942   -0.949878    0.696400
     19          6           0        2.652219   -0.983810   -1.185415
     20          1           0        2.756773   -0.233537   -1.970401
     21          1           0        3.647566   -1.265954   -0.825712
     22          1           0        2.155854   -1.869278   -1.597010
 ---------------------------------------------------------------------
                    Distance matrix (angstroms):
                    1          2          3          4          5
     1  C    0.000000
     2  H    1.097150   0.000000
     3  H    1.096442   1.774290   0.000000
     4  H    1.089928   1.777417   1.780293   0.000000
     5  C    1.517198   2.168541   2.181048   2.122385   0.000000
     6  O    2.425414   3.114451   3.180679   2.517265   1.251304
     7  N    2.454297   2.798296   2.753479   3.343718   1.372423
     8  H    2.530679   2.675335   2.539832   3.576424   2.027450
     9  C    3.856491   4.188241   4.185349   4.628437   2.511364
    10  H    4.089091   4.634801   4.444280   4.663412   2.614065
    11  C    4.576800   4.618352   5.148632   5.288681   3.295403
    12  H    4.790396   4.608101   5.305852   5.616482   3.752517
    13  H    5.594132   5.695631   6.145350   6.256381   4.229579
    14  H    4.283650   4.286051   5.050133   4.828169   3.044319
    15  C    5.004791   5.318253   5.057366   5.879004   3.838795
    16  O    6.037360   6.444156   6.099970   6.822070   4.757126
    17  N    5.276769   5.438299   5.137754   6.274747   4.425914
    18  H    4.802636   4.811163   4.638506   5.858246   4.182672
    19  C    6.633589   6.810311   6.370786   7.632517   5.832410
    20  H    7.145921   7.431425   6.934179   8.080095   6.176485
    21  H    7.273787   7.305566   7.063396   8.309800   6.515882
    22  H    6.754238   6.977393   6.316948   7.748926   6.131736
                    6          7          8          9         10
     6  O    0.000000
     7  N    2.292740   0.000000
     8  H    3.159083   1.003093   0.000000
     9  C    2.856542   1.473117   2.155253   0.000000
    10  H    2.519095   2.058059   2.916329   1.093431   0.000000
    11  C    3.453775   2.489328   3.085611   1.546754   2.168492
    12  H    4.180193   2.794053   3.059000   2.183805   3.077989
    13  H    4.194807   3.434502   4.047994   2.186601   2.499441
    14  H    2.967415   2.697661   3.424357   2.177735   2.515658
    15  C    4.311243   2.592368   2.785067   1.563915   2.138945
    16  O    4.982683   3.656349   3.981453   2.409697   2.510903
    17  N    5.183906   3.074487   2.785841   2.586003   3.372007
    18  H    5.118454   2.851203   2.285744   2.799936   3.741545
    19  C    6.561863   4.504838   4.164575   3.934736   4.573768
    20  H    6.730006   4.897673   4.757138   4.065796   4.491670
    21  H    7.280410   5.151288   4.750124   4.567928   5.322107
    22  H    6.947443   4.878461   4.404823   4.565318   5.151594
                   11         12         13         14         15
    11  C    0.000000
    12  H    1.095849   0.000000
    13  H    1.094661   1.780069   0.000000
    14  H    1.094073   1.777187   1.779647   0.000000
    15  C    2.509948   2.771961   2.713545   3.473287   0.000000
    16  O    3.142863   3.581470   2.906866   4.092809   1.250246
    17  N    3.377648   3.202046   3.721992   4.354464   1.373474
    18  H    3.481899   3.088418   4.057408   4.344175   2.085490
    19  C    4.650911   4.434587   4.771778   5.689461   2.471687
    20  H    4.785640   4.762518   4.688749   5.842662   2.502306
    21  H    4.982845   4.560264   5.051333   6.039956   3.187241
    22  H    5.480627   5.278465   5.711078   6.463812   3.198305
                   16         17         18         19         20
    16  O    0.000000
    17  N    2.265317   0.000000
    18  H    3.175806   1.002722   0.000000
    19  C    2.750052   1.462788   2.113394   0.000000
    20  H    2.248656   2.068173   2.959893   1.090892   0.000000
    21  H    3.469138   2.120769   2.499021   1.095311   1.780368
    22  H    3.529735   2.118345   2.514194   1.095373   1.782183
                   21         22
    21  H    0.000000
    22  H    1.784406   0.000000
 Stoichiometry    C6H12N2O2
 Framework group  C1[X(C6H12N2O2)]
 Deg. of freedom    60
 Full point group                 C1      NOp   1
 RotChk:  IX=3 Diff= 8.30D-02
 Largest Abelian subgroup         C1      NOp   1
 Largest concise Abelian subgroup C1      NOp   1
                         Standard orientation:                         
 ---------------------------------------------------------------------
 Center     Atomic      Atomic             Coordinates (Angstroms)
 Number     Number       Type             X           Y           Z
 ---------------------------------------------------------------------
      1          6           0        3.207268    1.438065    0.109808
      2          1           0        3.275087    1.610244    1.191239
      3          1           0        2.835082    2.357985   -0.356464
      4          1           0        4.204817    1.223795   -0.273504
      5          6           0        2.323834    0.243631   -0.198025
      6          8           0        2.777111   -0.801901   -0.714905
      7          7           0        0.999387    0.366653    0.139987
      8          1           0        0.713946    1.256977    0.503364
      9          6           0        0.006685   -0.709171   -0.024995
     10          1           0        0.307656   -1.253270   -0.924420
     11          6           0        0.027223   -1.673125    1.184475
     12          1           0       -0.301518   -1.152529    2.091003
     13          1           0       -0.636886   -2.525375    1.008659
     14          1           0        1.043052   -2.045427    1.347190
     15          6           0       -1.478478   -0.280440   -0.262291
     16          8           0       -2.194308   -1.042838   -0.947457
     17          7           0       -2.033435    0.848703    0.288607
     18          1           0       -1.525483    1.432673    0.926114
     19          6           0       -3.422120    1.220485    0.018272
     20          1           0       -3.830874    0.472779   -0.662831
     21          1           0       -4.016121    1.228531    0.938492
     22          1           0       -3.479323    2.207367   -0.453569
 ---------------------------------------------------------------------
 Rotational constants (GHZ):           2.3888748           0.6596532           0.5815614
 Leave Link  202 at Sat Jul 18 16:40:10 2020, MaxMem=   104857600 cpu:               0.0 elap:               0.0
 (Enter /opt/g16/g16/l301.exe)
 Standard basis: 6-31G (6D, 7F)
 Ernie: Thresh=  0.10000D-02 Tol=  0.10000D-05 Strict=F.
 There are   114 symmetry adapted cartesian basis functions of A   symmetry.
 There are   114 symmetry adapted basis functions of A   symmetry.
   114 basis functions,   268 primitive gaussians,   114 cartesian basis functions
    39 alpha electrons       39 beta electrons
       nuclear repulsion energy       541.2876831699 Hartrees.
 IExCor=  402 DFT=T Ex+Corr=B3LYP ExCW=0 ScaHFX=  0.200000
 ScaDFX=  0.800000  0.720000  1.000000  0.810000 ScalE2=  1.000000  1.000000
 IRadAn=      5 IRanWt=     -1 IRanGd=            0 ICorTp=0 IEmpDi=  4
 NAtoms=   22 NActive=   22 NUniq=   22 SFac= 1.00D+00 NAtFMM=   60 NAOKFM=F Big=F
 Integral buffers will be    131072 words long.
 Raffenetti 2 integral format.
 Two-electron integral symmetry is turned on.
 Leave Link  301 at Sat Jul 18 16:40:10 2020, MaxMem=   104857600 cpu:               0.0 elap:               0.1
 (Enter /opt/g16/g16/l302.exe)
 NPDir=0 NMtPBC=     1 NCelOv=     1 NCel=       1 NClECP=     1 NCelD=      1
         NCelK=      1 NCelE2=     1 NClLst=     1 CellRange=     0.0.
 One-electron integrals computed using PRISM.
 One-electron integral symmetry used in STVInt
 NBasis=   114 RedAO= T EigKep=  4.10D-03  NBF=   114
 NBsUse=   114 1.00D-06 EigRej= -1.00D+00 NBFU=   114
 Precomputing XC quadrature grid using
 IXCGrd= 4 IRadAn=           5 IRanWt=          -1 IRanGd=           0 AccXCQ= 0.00D+00.
 Generated NRdTot=       0 NPtTot=           0 NUsed=           0 NTot=          32
 NSgBfM=   114   113   114   114   114 MxSgAt=    22 MxSgA2=    22.
 Leave Link  302 at Sat Jul 18 16:40:11 2020, MaxMem=   104857600 cpu:               0.9 elap:               0.9
 (Enter /opt/g16/g16/l303.exe)
 DipDrv:  MaxL=1.
 Leave Link  303 at Sat Jul 18 16:40:11 2020, MaxMem=   104857600 cpu:               0.0 elap:               0.0
 (Enter /opt/g16/g16/l401.exe)
 Initial guess from the checkpoint file:  "/tmp/scratch/Gau-27531.chk"
 B after Tr=     0.000000   -0.000000   -0.000000
         Rot=    0.999626    0.022937    0.002669   -0.014648 Ang=   3.13 deg.
 Guess basis will be translated and rotated to current coordinates.
 JPrj=2 DoOrth=T DoCkMO=T.
 Generating alternative initial guess.
 ExpMin= 1.61D-01 ExpMax= 5.48D+03 ExpMxC= 8.25D+02 IAcc=2 IRadAn=         4 AccDes= 0.00D+00
 Harris functional with IExCor=  402 and IRadAn=       4 diagonalized for initial guess.
 HarFok:  IExCor=  402 AccDes= 0.00D+00 IRadAn=         4 IDoV= 1 UseB2=F ITyADJ=14
 ICtDFT=  3500011 ScaDFX=  1.000000  1.000000  1.000000  1.000000
 FoFCou: FMM=F IPFlag=           0 FMFlag=      100000 FMFlg1=           0
         NFxFlg=           0 DoJE=T BraDBF=F KetDBF=T FulRan=T
         wScrn=  0.000000 ICntrl=       500 IOpCl=  0 I1Cent=   200000004 NGrid=           0
         NMat0=    1 NMatS0=      1 NMatT0=    0 NMatD0=    1 NMtDS0=    0 NMtDT0=    0
 Petite list used in FoFCou.
 Harris En= -495.746282860192    
 Leave Link  401 at Sat Jul 18 16:40:13 2020, MaxMem=   104857600 cpu:               2.3 elap:               2.3
 (Enter /opt/g16/g16/l502.exe)
 Keep R1 ints in memory in canonical form, NReq=22427569.
 FoFCou: FMM=F IPFlag=           0 FMFlag=           0 FMFlg1=           0
         NFxFlg=           0 DoJE=F BraDBF=F KetDBF=F FulRan=T
         wScrn=  0.000000 ICntrl=       600 IOpCl=  0 I1Cent=           0 NGrid=           0
         NMat0=    1 NMatS0=   6555 NMatT0=    0 NMatD0=    1 NMtDS0=    0 NMtDT0=    0
 Symmetry not used in FoFCou.
 Two-electron integral symmetry not used.
 Closed shell SCF:
 Using DIIS extrapolation, IDIIS=  1040.
 NGot=   104857600 LenX=    83341928 LenY=    83328491
 Requested convergence on RMS density matrix=1.00D-08 within 128 cycles.
 Requested convergence on MAX density matrix=1.00D-06.
 Requested convergence on             energy=1.00D-06.
 No special actions if energy rises.
 Integral accuracy reduced to 1.0D-05 until final iterations.

 Cycle   1  Pass 0  IDiag  1:
 E= -495.595323464013    
 DIIS: error= 1.13D-02 at cycle   1 NSaved=   1.
 NSaved= 1 IEnMin= 1 EnMin= -495.595323464013     IErMin= 1 ErrMin= 1.13D-02
 ErrMax= 1.13D-02  0.00D+00 EMaxC= 1.00D-01 BMatC= 4.85D-02 BMatP= 4.85D-02
 IDIUse=3 WtCom= 8.87D-01 WtEn= 1.13D-01
 Coeff-Com:  0.100D+01
 Coeff-En:   0.100D+01
 Coeff:      0.100D+01
 Recover alternate guess density for next cycle.
 RMSDP=7.84D-03 MaxDP=1.26D-01              OVMax= 0.00D+00

 Cycle   2  Pass 0  IDiag  1:
 E= -495.335733019781     Delta-E=        0.259590444232 Rises=F Damp=F
 Switch densities from cycles 1 and 2 for lowest energy.
 DIIS: error= 4.64D-02 at cycle   2 NSaved=   2.
 NSaved= 2 IEnMin= 1 EnMin= -495.595323464013     IErMin= 1 ErrMin= 1.13D-02
 ErrMax= 4.64D-02  0.00D+00 EMaxC= 1.00D+00 BMatC= 3.75D-01 BMatP= 4.85D-02
 IDIUse=1 WtCom= 1.00D+00 WtEn= 0.00D+00
 Coeff-Com:  0.886D+00 0.114D+00
 Coeff:      0.886D+00 0.114D+00
 Gap=     0.254 Goal=   None    Shift=    0.000
 RMSDP=3.86D-03 MaxDP=3.69D-02 DE= 2.60D-01 OVMax= 1.18D-01

 Cycle   3  Pass 0  IDiag  1:
 E= -495.677612385902     Delta-E=       -0.341879366121 Rises=F Damp=F
 DIIS: error= 1.10D-02 at cycle   3 NSaved=   3.
 NSaved= 3 IEnMin= 3 EnMin= -495.677612385902     IErMin= 3 ErrMin= 1.10D-02
 ErrMax= 1.10D-02  0.00D+00 EMaxC= 1.00D+00 BMatC= 1.38D-02 BMatP= 4.85D-02
 IDIUse=1 WtCom= 1.00D+00 WtEn= 0.00D+00
 Coeff-Com: -0.136D-01 0.155D+00 0.859D+00
 Coeff:     -0.136D-01 0.155D+00 0.859D+00
 Gap=     0.255 Goal=   None    Shift=    0.000
 RMSDP=1.38D-03 MaxDP=2.76D-02 DE=-3.42D-01 OVMax= 2.52D-02

 Cycle   4  Pass 0  IDiag  1:
 E= -495.686662662766     Delta-E=       -0.009050276864 Rises=F Damp=F
 DIIS: error= 5.75D-03 at cycle   4 NSaved=   4.
 NSaved= 4 IEnMin= 4 EnMin= -495.686662662766     IErMin= 4 ErrMin= 5.75D-03
 ErrMax= 5.75D-03  0.00D+00 EMaxC= 1.00D+00 BMatC= 2.84D-03 BMatP= 1.38D-02
 IDIUse=1 WtCom= 1.00D+00 WtEn= 0.00D+00
 Coeff-Com: -0.269D-01 0.779D-01 0.505D+00 0.444D+00
 Coeff:     -0.269D-01 0.779D-01 0.505D+00 0.444D+00
 Gap=     0.251 Goal=   None    Shift=    0.000
 RMSDP=5.99D-04 MaxDP=1.41D-02 DE=-9.05D-03 OVMax= 1.56D-02

 Cycle   5  Pass 0  IDiag  1:
 E= -495.688916872581     Delta-E=       -0.002254209815 Rises=F Damp=F
 DIIS: error= 1.84D-03 at cycle   5 NSaved=   5.
 NSaved= 5 IEnMin= 5 EnMin= -495.688916872581     IErMin= 5 ErrMin= 1.84D-03
 ErrMax= 1.84D-03  0.00D+00 EMaxC= 1.00D+00 BMatC= 1.98D-04 BMatP= 2.84D-03
 IDIUse=1 WtCom= 1.00D+00 WtEn= 0.00D+00
 Coeff-Com: -0.106D-01 0.229D-01 0.150D+00 0.249D+00 0.588D+00
 Coeff:     -0.106D-01 0.229D-01 0.150D+00 0.249D+00 0.588D+00
 Gap=     0.251 Goal=   None    Shift=    0.000
 RMSDP=1.99D-04 MaxDP=4.55D-03 DE=-2.25D-03 OVMax= 6.91D-03

 Cycle   6  Pass 0  IDiag  1:
 E= -495.689072781556     Delta-E=       -0.000155908975 Rises=F Damp=F
 DIIS: error= 6.82D-04 at cycle   6 NSaved=   6.
 NSaved= 6 IEnMin= 6 EnMin= -495.689072781556     IErMin= 6 ErrMin= 6.82D-04
 ErrMax= 6.82D-04  0.00D+00 EMaxC= 1.00D+00 BMatC= 2.92D-05 BMatP= 1.98D-04
 IDIUse=1 WtCom= 1.00D+00 WtEn= 0.00D+00
 Coeff-Com: -0.240D-02 0.408D-02 0.270D-01 0.976D-01 0.360D+00 0.514D+00
 Coeff:     -0.240D-02 0.408D-02 0.270D-01 0.976D-01 0.360D+00 0.514D+00
 Gap=     0.251 Goal=   None    Shift=    0.000
 RMSDP=5.17D-05 MaxDP=1.27D-03 DE=-1.56D-04 OVMax= 2.33D-03

 Cycle   7  Pass 0  IDiag  1:
 E= -495.689098606732     Delta-E=       -0.000025825175 Rises=F Damp=F
 DIIS: error= 1.29D-04 at cycle   7 NSaved=   7.
 NSaved= 7 IEnMin= 7 EnMin= -495.689098606732     IErMin= 7 ErrMin= 1.29D-04
 ErrMax= 1.29D-04  0.00D+00 EMaxC= 1.00D+00 BMatC= 2.22D-06 BMatP= 2.92D-05
 IDIUse=1 WtCom= 1.00D+00 WtEn= 0.00D+00
[...]
    16  O    6.043492   6.685593   6.046059   6.676451   4.762748
    17  N    4.666367   5.568556   4.565922   5.068756   3.637198
    18  H    3.819019   4.793152   3.725071   4.130200   2.945836
    19  C    5.957794   6.919975   5.767756   6.242232   5.028404
    20  H    6.728458   7.621628   6.555440   7.110717   5.680420
    21  H    6.143994   7.135882   5.769873   6.416942   5.446199
    22  H    6.277430   7.280041   6.204053   6.389659   5.338145
                    6          7          8          9         10
     6  O    0.000000
     7  N    2.302907   0.000000
     8  H    3.190377   1.011311   0.000000
     9  C    2.844780   1.470023   2.133139   0.000000
    10  H    2.319077   2.047413   2.953577   1.097752   0.000000
    11  C    3.921486   2.488562   2.746236   1.535009   2.164804
    12  H    4.615409   2.746842   2.589026   2.184057   3.081296
    13  H    4.640120   3.421922   3.745232   2.161194   2.542658
    14  H    3.760364   2.772808   3.079049   2.171668   2.458006
    15  C    3.926123   2.504891   2.913285   1.540651   2.135610
    16  O    4.997070   3.640062   3.968270   2.432317   2.900075
    17  N    4.048830   2.758368   3.071806   2.464127   2.942726
    18  H    3.452371   2.316979   2.649281   2.557625   2.966363
    19  C    5.374810   4.201990   4.410828   3.846670   4.256893
    20  H    5.979697   4.714367   4.918633   4.051574   4.477379
    21  H    5.973975   4.596085   4.586398   4.495822   5.056335
    22  H    5.487826   4.751565   5.107041   4.427335   4.599564
                   11         12         13         14         15
    11  C    0.000000
    12  H    1.097163   0.000000
    13  H    1.091784   1.766302   0.000000
    14  H    1.093926   1.780853   1.785777   0.000000
    15  C    2.533428   2.863734   2.688415   3.479773   0.000000
    16  O    2.835494   3.119456   2.504353   3.864915   1.252791
    17  N    3.718022   3.907065   4.029731   4.581777   1.363761
    18  H    3.955167   4.150550   4.484166   4.653483   2.040823
    19  C    4.967502   5.070029   5.089400   5.913783   2.474841
    20  H    4.927385   5.016363   4.827688   5.949296   2.523232
    21  H    5.545995   5.455545   5.772283   6.498079   3.218763
    22  H    5.689118   5.937017   5.785157   6.563262   3.170479
                   16         17         18         19         20
    16  O    0.000000
    17  N    2.303118   0.000000
    18  H    3.182218   1.009202   0.000000
    19  C    2.840023   1.459682   2.146263   0.000000
    20  H    2.365280   2.069063   2.984952   1.091295   0.000000
    21  H    3.623721   2.116849   2.536749   1.095690   1.782528
    22  H    3.554063   2.119020   2.553882   1.096107   1.780231
                   21         22
    21  H    0.000000
    22  H    1.782658   0.000000
 Stoichiometry    C6H12N2O2
 Framework group  C1[X(C6H12N2O2)]
 Deg. of freedom    60
 Full point group                 C1      NOp   1
 RotChk:  IX=1 Diff= 1.40D-15
 Largest Abelian subgroup         C1      NOp   1
 Largest concise Abelian subgroup C1      NOp   1
                         Standard orientation:                         
 ---------------------------------------------------------------------
 Center     Atomic      Atomic             Coordinates (Angstroms)
 Number     Number       Type             X           Y           Z
 ---------------------------------------------------------------------
      1          6           0        3.151741    0.945013    0.677759
      2          1           0        3.985103    0.240446    0.781252
      3          1           0        2.801386    1.217865    1.677993
      4          1           0        3.537920    1.835572    0.176316
      5          6           0        2.071756    0.321101   -0.184219
      6          8           0        2.184178    0.225154   -1.424882
      7          7           0        0.961109   -0.142737    0.491402
      8          1           0        0.965071   -0.124777    1.502546
      9          6           0       -0.087473   -0.935872   -0.166154
     10          1           0        0.196667   -0.953195   -1.226354
     11          6           0       -0.139178   -2.371758    0.374041
     12          1           0       -0.307209   -2.379194    1.458235
     13          1           0       -0.968084   -2.908126   -0.092023
     14          1           0        0.799676   -2.890983    0.160423
     15          6           0       -1.473294   -0.267616   -0.085285
     16          8           0       -2.519379   -0.945626   -0.209756
     17          7           0       -1.474195    1.085941    0.081231
     18          1           0       -0.582522    1.552487    0.157023
     19          6           0       -2.703551    1.872916    0.086267
     20          1           0       -3.540352    1.175723    0.018360
     21          1           0       -2.794389    2.455650    1.009689
     22          1           0       -2.740052    2.557178   -0.769247
 ---------------------------------------------------------------------
 Rotational constants (GHZ):           1.9052559           0.8029409           0.6449862
 Leave Link  202 at Sat Jul 18 17:07:58 2020, MaxMem=   104857600 cpu:               0.0 elap:               0.0
 (Enter /opt/g16/g16/l601.exe)
 Copying SCF densities to generalized density rwf, IOpCl= 0 IROHF=0.

 **********************************************************************

            Population analysis using the SCF density.

 **********************************************************************

 Orbital symmetries:
       Occupied  (A) (A) (A) (A) (A) (A) (A) (A) (A) (A) (A) (A)
                 (A) (A) (A) (A) (A) (A) (A) (A) (A) (A) (A) (A)
                 (A) (A) (A) (A) (A) (A) (A) (A) (A) (A) (A) (A)
                 (A) (A) (A)
       Virtual   (A) (A) (A) (A) (A) (A) (A) (A) (A) (A) (A) (A)
                 (A) (A) (A) (A) (A) (A) (A) (A) (A) (A) (A) (A)
                 (A) (A) (A) (A) (A) (A) (A) (A) (A) (A) (A) (A)
                 (A) (A) (A) (A) (A) (A) (A) (A) (A) (A) (A) (A)
                 (A) (A) (A) (A) (A) (A) (A) (A) (A) (A) (A) (A)
                 (A) (A) (A) (A) (A) (A) (A) (A) (A) (A) (A) (A)
                 (A) (A) (A)
 The electronic state is 1-A.
 Alpha  occ. eigenvalues --  -19.12232 -19.11070 -14.37391 -14.36122 -10.30695
 Alpha  occ. eigenvalues --  -10.29080 -10.23851 -10.21505 -10.20110 -10.17809
 Alpha  occ. eigenvalues --   -1.05070  -1.03713  -0.94355  -0.92087  -0.79055
 Alpha  occ. eigenvalues --   -0.74212  -0.71906  -0.64853  -0.60654  -0.58787
 Alpha  occ. eigenvalues --   -0.54572  -0.49405  -0.48794  -0.46277  -0.45972
 Alpha  occ. eigenvalues --   -0.44724  -0.42721  -0.41967  -0.40538  -0.40101
 Alpha  occ. eigenvalues --   -0.39088  -0.38558  -0.37113  -0.36486  -0.35169
 Alpha  occ. eigenvalues --   -0.27823  -0.25879  -0.25171  -0.24049
 Alpha virt. eigenvalues --    0.00599   0.01789   0.05930   0.09515   0.11316
 Alpha virt. eigenvalues --    0.12389   0.12699   0.14051   0.15210   0.15987
 Alpha virt. eigenvalues --    0.16401   0.16860   0.17375   0.18146   0.18776
 Alpha virt. eigenvalues --    0.20296   0.23238   0.24038   0.26317   0.29783
 Alpha virt. eigenvalues --    0.34312   0.37745   0.40619   0.51789   0.51998
 Alpha virt. eigenvalues --    0.54299   0.55088   0.55523   0.56256   0.56905
 Alpha virt. eigenvalues --    0.58022   0.59659   0.62043   0.63551   0.65762
 Alpha virt. eigenvalues --    0.67555   0.69672   0.73017   0.74349   0.76290
 Alpha virt. eigenvalues --    0.76792   0.78603   0.79687   0.84981   0.87379
 Alpha virt. eigenvalues --    0.88522   0.89643   0.90573   0.91129   0.92078
 Alpha virt. eigenvalues --    0.93178   0.94097   0.94580   0.95353   0.96249
 Alpha virt. eigenvalues --    0.97930   0.99851   1.00733   1.02874   1.05126
 Alpha virt. eigenvalues --    1.06414   1.08080   1.14649   1.18775   1.23147
 Alpha virt. eigenvalues --    1.29746   1.33093   1.35376   1.38589   1.41324
 Alpha virt. eigenvalues --    1.59792   1.61817   1.74961   1.94697   2.06673
          Condensed to atoms (all electrons):
               1          2          3          4          5          6
     1  C    5.402299   0.364744   0.332684   0.360777   0.261682  -0.097316
     2  H    0.364744   0.523224  -0.026616  -0.021937  -0.026054   0.000281
     3  H    0.332684  -0.026616   0.596613  -0.027242  -0.023477   0.003156
     4  H    0.360777  -0.021937  -0.027242   0.520266  -0.023363   0.002220
     5  C    0.261682  -0.026054  -0.023477  -0.023363   4.703018   0.575727
     6  O   -0.097316   0.000281   0.003156   0.002220   0.575727   8.082181
     7  N   -0.155015   0.001044   0.006547   0.004092   0.047765  -0.128158
     8  H    0.001172   0.000016   0.002577  -0.000039  -0.010665   0.002687
     9  C    0.005129  -0.000193   0.000160  -0.000129  -0.023612  -0.003978
    10  H    0.001588  -0.000009  -0.000062  -0.000010   0.004657   0.021421
    11  C   -0.000242   0.000045  -0.000014  -0.000002   0.002687   0.000374
    12  H   -0.000006   0.000000   0.000002   0.000000  -0.000264  -0.000012
    13  H    0.000004  -0.000000  -0.000000   0.000000  -0.000111  -0.000009
    14  H   -0.000010  -0.000005  -0.000002   0.000001   0.001170   0.000163
    15  C   -0.000167  -0.000003  -0.000008   0.000009  -0.000544  -0.000116
    16  O    0.000000   0.000000   0.000000  -0.000000  -0.000038  -0.000001
    17  N   -0.000013  -0.000000   0.000000   0.000004   0.000845   0.000060
    18  H    0.000036   0.000006   0.000052  -0.000035   0.001679  -0.000286
    19  C   -0.000000  -0.000000  -0.000000   0.000000  -0.000007   0.000000
    20  H   -0.000000  -0.000000  -0.000000   0.000000  -0.000000   0.000000
    21  H    0.000000   0.000000   0.000000  -0.000000   0.000002  -0.000000
    22  H   -0.000000   0.000000  -0.000000   0.000000  -0.000003   0.000000
               7          8          9         10         11         12
     1  C   -0.155015   0.001172   0.005129   0.001588  -0.000242  -0.000006
     2  H    0.001044   0.000016  -0.000193  -0.000009   0.000045   0.000000
     3  H    0.006547   0.002577   0.000160  -0.000062  -0.000014   0.000002
     4  H    0.004092  -0.000039  -0.000129  -0.000010  -0.000002   0.000000
     5  C    0.047765  -0.010665  -0.023612   0.004657   0.002687  -0.000264
     6  O   -0.128158   0.002687  -0.003978   0.021421   0.000374  -0.000012
     7  N    7.599499   0.299369   0.105527  -0.054597  -0.065534  -0.005016
     8  H    0.299369   0.412156  -0.031029   0.004326  -0.001563   0.004551
     9  C    0.105527  -0.031029   5.494483   0.376472   0.316299  -0.037023
    10  H   -0.054597   0.004326   0.376472   0.489487  -0.029269   0.003983
    11  C   -0.065534  -0.001563   0.316299  -0.029269   5.098391   0.373895
    12  H   -0.005016   0.004551  -0.037023   0.003983   0.373895   0.595149
    13  H    0.004925  -0.000032  -0.036231  -0.000830   0.368514  -0.025497
    14  H    0.000252  -0.000197  -0.036649  -0.004829   0.367162  -0.034601
    15  C   -0.035241  -0.000806   0.190432  -0.035478  -0.043109  -0.004998
    16  O    0.002388  -0.000002  -0.104771   0.000814   0.001040   0.000663
    17  N   -0.000373   0.001832  -0.167179  -0.000044   0.004755   0.000245
    18  H    0.015902  -0.000193  -0.004845   0.000302   0.000432  -0.000023
    19  C    0.000123  -0.000061   0.004820  -0.000139  -0.000113  -0.000007
    20  H   -0.000084  -0.000002   0.001493  -0.000025  -0.000015  -0.000003
    21  H    0.000012  -0.000015  -0.000046  -0.000005   0.000009  -0.000001
    22  H   -0.000003   0.000005  -0.000223   0.000032  -0.000004   0.000000
              13         14         15         16         17         18
     1  C    0.000004  -0.000010  -0.000167   0.000000  -0.000013   0.000036
     2  H   -0.000000  -0.000005  -0.000003   0.000000  -0.000000   0.000006
     3  H   -0.000000  -0.000002  -0.000008   0.000000   0.000000   0.000052
     4  H    0.000000   0.000001   0.000009  -0.000000   0.000004  -0.000035
     5  C   -0.000111   0.001170  -0.000544  -0.000038   0.000845   0.001679
     6  O   -0.000009   0.000163  -0.000116  -0.000001   0.000060  -0.000286
     7  N    0.004925   0.000252  -0.035241   0.002388  -0.000373   0.015902
     8  H   -0.000032  -0.000197  -0.000806  -0.000002   0.001832  -0.000193
     9  C   -0.036231  -0.036649   0.190432  -0.104771  -0.167179  -0.004845
    10  H   -0.000830  -0.004829  -0.035478   0.000814  -0.000044   0.000302
    11  C    0.368514   0.367162  -0.043109   0.001040   0.004755   0.000432
    12  H   -0.025497  -0.034601  -0.004998   0.000663   0.000245  -0.000023
    13  H    0.517380  -0.025537   0.001132   0.010417   0.000602  -0.000045
    14  H   -0.025537   0.585887   0.005741   0.000313  -0.000087  -0.000012
    15  C    0.001132   0.005741   4.750662   0.573839   0.098162  -0.013607
    16  O    0.010417   0.000313   0.573839   8.110962  -0.127185   0.002919
    17  N    0.000602  -0.000087   0.098162  -0.127185   7.438118   0.301392
    18  H   -0.000045  -0.000012  -0.013607   0.002919   0.301392   0.397486
    19  C    0.000001   0.000002  -0.035586  -0.008907   0.216713  -0.028348
    20  H   -0.000004   0.000000   0.003797   0.019466  -0.046084   0.003191
    21  H   -0.000000  -0.000000   0.001802   0.000430  -0.045457  -0.000758
    22  H    0.000000  -0.000000   0.002168   0.000523  -0.046852  -0.001325
              19         20         21         22
     1  C   -0.000000  -0.000000   0.000000  -0.000000
     2  H   -0.000000  -0.000000   0.000000   0.000000
     3  H   -0.000000  -0.000000   0.000000  -0.000000
     4  H    0.000000   0.000000  -0.000000   0.000000
     5  C   -0.000007  -0.000000   0.000002  -0.000003
     6  O    0.000000   0.000000  -0.000000   0.000000
     7  N    0.000123  -0.000084   0.000012  -0.000003
     8  H   -0.000061  -0.000002  -0.000015   0.000005
     9  C    0.004820   0.001493  -0.000046  -0.000223
    10  H   -0.000139  -0.000025  -0.000005   0.000032
    11  C   -0.000113  -0.000015   0.000009  -0.000004
    12  H   -0.000007  -0.000003  -0.000001   0.000000
    13  H    0.000001  -0.000004  -0.000000   0.000000
    14  H    0.000002   0.000000  -0.000000  -0.000000
    15  C   -0.035586   0.003797   0.001802   0.002168
    16  O   -0.008907   0.019466   0.000430   0.000523
    17  N    0.216713  -0.046084  -0.045457  -0.046852
    18  H   -0.028348   0.003191  -0.000758  -0.001325
    19  C    4.959000   0.378421   0.379605   0.382057
    20  H    0.378421   0.490174  -0.025543  -0.025634
    21  H    0.379605  -0.025543   0.582622  -0.040445
    22  H    0.382057  -0.025634  -0.040445   0.573675
 Mulliken charges:
               1
     1  C   -0.477346
     2  H    0.185459
     3  H    0.135629
     4  H    0.185390
     5  C    0.508906
     6  O   -0.458394
     7  N   -0.643422
     8  H    0.315912
     9  C   -0.048909
    10  H    0.222216
    11  C   -0.393739
    12  H    0.128963
    13  H    0.185322
    14  H    0.141240
    15  C    0.541922
    16  O   -0.482872
    17  N   -0.629454
    18  H    0.326080
    19  C   -0.247572
    20  H    0.200852
    21  H    0.147787
    22  H    0.156029
 Sum of Mulliken charges =  -0.00000
 Mulliken charges with hydrogens summed into heavy atoms:
               1
     1  C    0.029131
     5  C    0.508906
     6  O   -0.458394
     7  N   -0.327510
     9  C    0.173307
    11  C    0.061787
    15  C    0.541922
    16  O   -0.482872
    17  N   -0.303373
    19  C    0.257097
 Electronic spatial extent (au):  <R**2>=           1854.3358
 Charge=             -0.0000 electrons
 Dipole moment (field-independent basis, Debye):
    X=              1.8699    Y=              2.4273    Z=              3.9738  Tot=              5.0180
 Quadrupole moment (field-independent basis, Debye-Ang):
   XX=            -66.7983   YY=            -56.1986   ZZ=            -62.8161
   XY=             -6.5581   XZ=              7.1987   YZ=              0.8325
 Traceless Quadrupole moment (field-independent basis, Debye-Ang):
   XX=             -4.8606   YY=              5.7391   ZZ=             -0.8785
   XY=             -6.5581   XZ=              7.1987   YZ=              0.8325
 Octapole moment (field-independent basis, Debye-Ang**2):
  XXX=             25.1273  YYY=              7.5592  ZZZ=              8.6912  XYY=              0.4431
  XXY=             26.4120  XXZ=             19.7128  XZZ=             -9.7121  YZZ=             -1.7036
  YYZ=             -1.6337  XYZ=              2.8147
 Hexadecapole moment (field-independent basis, Debye-Ang**3):
 XXXX=          -1517.7749 YYYY=           -633.3839 ZZZZ=           -200.4796 XXXY=            -49.3913
 XXXZ=             28.6981 YYYX=             -6.0480 YYYZ=              1.9496 ZZZX=             15.9872
 ZZZY=              2.8024 XXYY=           -351.5665 XXZZ=           -314.6523 YYZZ=           -141.5066
 XXYZ=              0.3402 YYXZ=             -4.6381 ZZXY=             -2.2168
 N-N= 5.493078639275D+02 E-N=-2.255539458781D+03  KE= 4.928709931679D+02
 No NMR shielding tensors so no spin-rotation constants.
 Leave Link  601 at Sat Jul 18 17:07:58 2020, MaxMem=   104857600 cpu:               0.1 elap:               0.1
 (Enter /opt/g16/g16/l9999.exe)
 1\1\GINC-VEDA\FOpt\RB3LYP\6-31G\C6H12N2O2\HIRANO\18-Jul-2020\0\\#p opt
  rb3lyp/6-31g geom=connectivity\\ACE+ALA+NME\\0,1\C,-2.1018732413,-0.1
 082909429,2.8689948403\H,-2.4918415226,0.5133276782,3.6833244867\H,-1.
 4340497476,-0.8623282567,3.2969004056\H,-2.9546823707,-0.6063850931,2.
 4017753112\C,-1.4233104453,0.7776591473,1.8426978857\O,-2.0718132344,1
 .4789097897,1.0372297153\N,-0.0432253859,0.7667613061,1.8624925227\H,0
 .4279880984,0.2545173946,2.596191723\C,0.7641149273,1.7013966361,1.065
 2309929\H,0.0352969572,2.2583056822,0.4621246878\C,1.5477500233,2.6781
 890521,1.9529500371\H,2.2019949158,2.1394805626,2.6497455713\H,2.18089
 0061,3.3119811066,1.3289046878\H,0.8587863633,3.3025463918,2.529300941
 3\C,1.7028193162,0.9802050072,0.0791668511\O,2.7225740018,1.5531213884
 ,-0.3695571112\N,1.3255594721,-0.2763238565,-0.293196614\H,0.479545562
 8,-0.6531177969,0.1077722076\C,2.061009359,-1.0518072852,-1.2873846386
 \H,2.9440816018,-0.4747117959,-1.5667933288\H,2.3768254528,-2.01799835
 18,-0.8783954405\H,1.453036945,-1.2278270939,-2.1822800744\\Version=ES
 64L-G16RevA.03\State=1-A\HF=-495.70398\RMSD=7.422e-09\RMSF=3.733e-06\D
 ipole=-0.1773008,-1.5432162,1.2184341\Quadrupole=-9.0535368,3.7986753,
 5.2548615,0.4719381,-0.4571262,2.491936\PG=C01 [X(C6H12N2O2)]\\@


 A ROPE OVER THE TOP OF A FENCE HAS THE SAME LENGTH ON EACH SIDE.
 WEIGHS 1/3 POUND PER FOOT.  ON ONE END HANGS A MONKEY HOLDING A
 BANANA, AND ON THE OTHER END A WEIGHT EQUAL TO THE WEIGHT
 OF THE MONKEY.  THE BANANA WEIGHS TWO OUNCES PER INCH.
 THE ROPE IS AS LONG AS THE AGE OF THE MONKEY, 
 AND THE WEIGHT OF THE MONKEY (IN OUNCES) IS AS MUCH
 AS THE AGE OF THE MONKEY'S MOTHER.  THE COMBINED AGES OF MONKEY
 AND MOTHER ARE THIRTY YEARS.  HALF THE WEIGHT OF THE MONKEY,
  PLUS THE WEIGHT OF THE BANANA, IS ONE FOURTH AS MUCH AS THE WEIGHT
 OF THE WEIGHT AND THE ROPE.
 THE MONKEY'S MOTHER IS HALF AS OLD AS THE MONKEY WILL BE
 WHEN IT IS 3 TIMES AS OLD AS ITS MOTHER WAS WHEN
 SHE WAS HALF AS OLD AS THE MONKEY WILL BE WHEN IT IS
 AS OLD AS ITS MOTHER WILL BE WHEN SHE IS 4 TIMES AS
 OLD AS THE MONKEY WAS WHEN IT WAS TWICE AS OLD AS 
 ITS MOTHER WAS WHEN SHE WAS ONE THIRD AS OLD AS THE
 MONKEY WAS WHEN IT WAS AS OLD AS ITS MOTHER WAS WHEN 
 SHE WAS 3 TIMES AS OLD AS THE MONKEY WAS WHEN IT WAS AS OLD AS ITS
 MOTHER WAS WHEN SHE WAS 3 TIMES AS OLD AS THE MONKEY 
 WAS WHEN IT WAS ONE FOURTH WAS OLD AS IT IS NOW.

 HOW LONG IS THE BANANA?
 Job cpu time:       0 days  0 hours 29 minutes 12.3 seconds.
 Elapsed time:       0 days  0 hours 29 minutes 10.7 seconds.
 File lengths (MBytes):  RWF=     10 Int=      0 D2E=      0 Chk=      2 Scr=      1
 Normal termination of Gaussian 16 at Sat Jul 18 17:07:58 2020.
