 Entering Gaussian System, Link 0=/opt/g16/g16/g16
 Initial command:
 /opt/g16/g16/l1.exe "/tmp/scratch/Gau-27011.inp" -scrdir="/tmp/scratch/"
 Entering Link 1 = /opt/g16/g16/l1.exe PID=     27012.
  
 Copyright (c) 1988,1990,1992,1993,1995,1998,2003,2009,2016,
            Gaussian, Inc.  All Rights Reserved.
  
 This is part of the Gaussian(R) 16 program.  It is based on
 the Gaussian(R) 09 system (copyright 2009, Gaussian, Inc.),
 the Gaussian(R) 03 system (copyright 2003, Gaussian, Inc.),
 the Gaussian(R) 98 system (copyright 1998, Gaussian, Inc.),
 the Gaussian(R) 94 system (copyright 1995, Gaussian, Inc.),
 the Gaussian 92(TM) system (copyright 1992, Gaussian, Inc.),
 the Gaussian 90(TM) system (copyright 1990, Gaussian, Inc.),
 the Gaussian 88(TM) system (copyright 1988, Gaussian, Inc.),
 the Gaussian 86(TM) system (copyright 1986, Carnegie Mellon
 University), and the Gaussian 82(TM) system (copyright 1983,
 Carnegie Mellon University). Gaussian is a federally registered
 trademark of Gaussian, Inc.
  
 This software contains proprietary and confidential information,
 including trade secrets, belonging to Gaussian, Inc.
  
 This software is provided under written license and may be
 used, copied, transmitted, or stored only in accord with that
 written license.
  
 The following legend is applicable only to US Government
 contracts under FAR:
  
                    RESTRICTED RIGHTS LEGEND
  
 Use, reproduction and disclosure by the US Government is
 subject to restrictions as set forth in subparagraphs (a)
 and (c) of the Commercial Computer Software - Restricted
 Rights clause in FAR 52.227-19.
  
 Gaussian, Inc.
 340 Quinnipiac St., Bldg. 40, Wallingford CT 06492
  
  
 ---------------------------------------------------------------
 Warning -- This program may not be used in any manner that
 competes with the business of Gaussian, Inc. or will provide
 assistance to any competitor of Gaussian, Inc.  The licensee
 of this program is prohibited from giving any competitor of
 Gaussian, Inc. access to this program.  By using this program,
 the user acknowledges that Gaussian, Inc. is engaged in the
 business of creating and licensing software in the field of
 computational chemistry and represents and warrants to the
 licensee that it is not a competitor of Gaussian, Inc. and that
 it will not use this program in any manner prohibited above.
 ---------------------------------------------------------------
  

 Cite this work as:
 Gaussian 16, Revision A.03,
 M. J. Frisch, G. W. Trucks, H. B. Schlegel, G. E. Scuseria, 
 M. A. Robb, J. R. Cheeseman, G. Scalmani, V. Barone, 
 G. A. Petersson, H. Nakatsuji, X. Li, M. Caricato, A. V. Marenich, 
 J. Bloino, B. G. Janesko, R. Gomperts, B. Mennucci, H. P. Hratchian, 
 J. V. Ortiz, A. F. Izmaylov, J. L. Sonnenberg, D. Williams-Young, 
 F. Ding, F. Lipparini, F. Egidi, J. Goings, B. Peng, A. Petrone, 
 T. Henderson, D. Ranasinghe, V. G. Zakrzewski, J. Gao, N. Rega, 
 G. Zheng, W. Liang, M. Hada, M. Ehara, K. Toyota, R. Fukuda, 
 J. Hasegawa, M. Ishida, T. Nakajima, Y. Honda, O. Kitao, H. Nakai, 
 T. Vreven, K. Throssell, J. A. Montgomery, Jr., J. E. Peralta, 
 F. Ogliaro, M. J. Bearpark, J. J. Heyd, E. N. Brothers, K. N. Kudin, 
 V. N. Staroverov, T. A. Keith, R. Kobayashi, J. Normand, 
 K. Raghavachari, A. P. Rendell, J. C. Burant, S. S. Iyengar, 
 J. Tomasi, M. Cossi, J. M. Millam, M. Klene, C. Adamo, R. Cammi, 
 J. W. Ochterski, R. L. Martin, K. Morokuma, O. Farkas, 
 J. B. Foresman, and D. J. Fox, Gaussian, Inc., Wallingford CT, 2016.
 
 ******************************************
 Gaussian 16:  ES64L-G16RevA.03 25-Dec-2016
                18-Jul-2020 
 ******************************************
 -------------------------------------
 #p opt rb3lyp/6-31g geom=connectivity
 -------------------------------------
 1/18=20,19=15,26=3,38=1,57=2/1,3;
 2/9=110,12=2,17=6,18=5,40=1/2;
 3/5=1,6=6,11=2,25=1,30=1,71=1,74=-5,116=1/1,2,3;
 4//1;
 5/5=2,38=5/2;
 6/7=2,8=2,9=2,10=2,28=1/1;
 7//1,2,3,16;
 1/18=20,19=15,26=3/3(2);
 2/9=110/2;
 99//99;
 2/9=110/2;
 3/5=1,6=6,11=2,25=1,30=1,71=1,74=-5,116=1/1,2,3;
 4/5=5,16=3,69=1/1;
 5/5=2,38=5/2;
 7//1,2,3,16;
 1/18=20,19=15,26=3/3(-5);
 2/9=110/2;
 6/7=2,8=2,9=2,10=2,19=2,28=1/1;
 99/9=1/99;
 Leave Link    1 at Sat Jul 18 16:38:27 2020, MaxMem=           0 cpu:               0.0 elap:               0.0
 (Enter /opt/g16/g16/l101.exe)
 -----------
 ACE+ALA+NME
 -----------
 Symbolic Z-matrix:
 Charge =  0 Multiplicity = 1
 C                    -2.73039   0.67764   1.30311 
 H                    -2.76973  -0.40586   1.13366 
 H                    -2.77634   1.1727    0.32679 
 H                    -3.60128   0.96928   1.89035 
 C                    -1.48992   1.06595   2.08919 
 O                    -1.57068   1.53936   3.24407 
 N                    -0.27001   0.85691   1.49412 
 H                     0.53376   0.77046   2.10925 
 C                     0.02815   0.7182    0.07329 
 H                    -0.80253   0.20354  -0.42539 
 C                     0.27371   2.08302  -0.61702 
 H                     1.12411   2.5856   -0.14602 
 H                     0.48816   1.95695  -1.68457 
 H                    -0.60613   2.72503  -0.51302 
 C                     1.29562  -0.14655  -0.03785 
 O                     1.50915  -0.84619  -1.05428 
 N                     2.12159  -0.12888   1.04686 
 H                     1.90327   0.48206   1.8203 
 C                     3.33064  -0.94905   1.12725 
 H                     3.40034  -1.52203   0.20172 
 H                     4.22355  -0.32289   1.22768 
 H                     3.28154  -1.64043   1.9754 
 
 ITRead=  0  0  0  0  0  0  0  0  0  0  0  0  0  0  0  0  0  0  0  0
 ITRead=  0  0
 MicOpt= -1 -1 -1 -1 -1 -1 -1 -1 -1 -1 -1 -1 -1 -1 -1 -1 -1 -1 -1 -1
 MicOpt= -1 -1
 NAtoms=     22 NQM=       22 NQMF=       0 NMMI=      0 NMMIF=      0
                NMic=       0 NMicF=      0.
                    Isotopes and Nuclear Properties:
 (Nuclear quadrupole moments (NQMom) in fm**2, nuclear magnetic moments (NMagM)
  in nuclear magnetons)

  Atom         1           2           3           4           5           6           7           8           9          10
 IAtWgt=          12           1           1           1          12          16          14           1          12           1
 AtmWgt=  12.0000000   1.0078250   1.0078250   1.0078250  12.0000000  15.9949146  14.0030740   1.0078250  12.0000000   1.0078250
 NucSpn=           0           1           1           1           0           0           2           1           0           1
 AtZEff=  -0.0000000  -0.0000000  -0.0000000  -0.0000000  -0.0000000  -0.0000000  -0.0000000  -0.0000000  -0.0000000  -0.0000000
 NQMom=    0.0000000   0.0000000   0.0000000   0.0000000   0.0000000   0.0000000   2.0440000   0.0000000   0.0000000   0.0000000
 NMagM=    0.0000000   2.7928460   2.7928460   2.7928460   0.0000000   0.0000000   0.4037610   2.7928460   0.0000000   2.7928460
 AtZNuc=   6.0000000   1.0000000   1.0000000   1.0000000   6.0000000   8.0000000   7.0000000   1.0000000   6.0000000   1.0000000

  Atom        11          12          13          14          15          16          17          18          19          20
 IAtWgt=          12           1           1           1          12          16          14           1          12           1
 AtmWgt=  12.0000000   1.0078250   1.0078250   1.0078250  12.0000000  15.9949146  14.0030740   1.0078250  12.0000000   1.0078250
 NucSpn=           0           1           1           1           0           0           2           1           0           1
 AtZEff=  -0.0000000  -0.0000000  -0.0000000  -0.0000000  -0.0000000  -0.0000000  -0.0000000  -0.0000000  -0.0000000  -0.0000000
 NQMom=    0.0000000   0.0000000   0.0000000   0.0000000   0.0000000   0.0000000   2.0440000   0.0000000   0.0000000   0.0000000
 NMagM=    0.0000000   2.7928460   2.7928460   2.7928460   0.0000000   0.0000000   0.4037610   2.7928460   0.0000000   2.7928460
 AtZNuc=   6.0000000   1.0000000   1.0000000   1.0000000   6.0000000   8.0000000   7.0000000   1.0000000   6.0000000   1.0000000

  Atom        21          22
 IAtWgt=           1           1
 AtmWgt=   1.0078250   1.0078250
 NucSpn=           1           1
 AtZEff=  -0.0000000  -0.0000000
 NQMom=    0.0000000   0.0000000
 NMagM=    2.7928460   2.7928460
 AtZNuc=   1.0000000   1.0000000
 Leave Link  101 at Sat Jul 18 16:38:27 2020, MaxMem=   104857600 cpu:               0.3 elap:               0.3
 (Enter /opt/g16/g16/l103.exe)

 GradGradGradGradGradGradGradGradGradGradGradGradGradGradGradGradGradGrad
 Berny optimization.
 Initialization pass.
                           ----------------------------
                           !    Initial Parameters    !
                           ! (Angstroms and Degrees)  !
 --------------------------                            --------------------------
 ! Name  Definition              Value          Derivative Info.                !
 --------------------------------------------------------------------------------
 ! R1    R(1,2)                  1.0974         estimate D2E/DX2                !
 ! R2    R(1,3)                  1.0956         estimate D2E/DX2                !
 ! R3    R(1,4)                  1.0901         estimate D2E/DX2                !
 ! R4    R(1,5)                  1.519          estimate D2E/DX2                !
 ! R5    R(5,6)                  1.2508         estimate D2E/DX2                !
 ! R6    R(5,7)                  1.3733         estimate D2E/DX2                !
 ! R7    R(7,8)                  1.0158         estimate D2E/DX2                !
 ! R8    R(7,9)                  1.4584         estimate D2E/DX2                !
 ! R9    R(9,10)                 1.0971         estimate D2E/DX2                !
 ! R10   R(9,11)                 1.549          estimate D2E/DX2                !
 ! R11   R(9,15)                 1.5384         estimate D2E/DX2                !
 ! R12   R(11,12)                1.0944         estimate D2E/DX2                !
 ! R13   R(11,13)                1.0961         estimate D2E/DX2                !
 ! R14   R(11,14)                1.0941         estimate D2E/DX2                !
 ! R15   R(15,16)                1.2523         estimate D2E/DX2                !
 ! R16   R(15,17)                1.3635         estimate D2E/DX2                !
 ! R17   R(17,18)                1.0095         estimate D2E/DX2                !
 ! R18   R(17,19)                1.4632         estimate D2E/DX2                !
 ! R19   R(19,20)                1.0908         estimate D2E/DX2                !
 ! R20   R(19,21)                1.0952         estimate D2E/DX2                !
 ! R21   R(19,22)                1.0953         estimate D2E/DX2                !
 ! A1    A(2,1,3)              107.8802         estimate D2E/DX2                !
 ! A2    A(2,1,4)              108.5844         estimate D2E/DX2                !
 ! A3    A(2,1,5)              111.1975         estimate D2E/DX2                !
 ! A4    A(3,1,4)              109.0043         estimate D2E/DX2                !
 ! A5    A(3,1,5)              112.3261         estimate D2E/DX2                !
 ! A6    A(4,1,5)              107.7724         estimate D2E/DX2                !
 ! A7    A(1,5,6)              121.4562         estimate D2E/DX2                !
 ! A8    A(1,5,7)              117.5328         estimate D2E/DX2                !
 ! A9    A(6,5,7)              121.0017         estimate D2E/DX2                !
 ! A10   A(5,7,8)              116.9641         estimate D2E/DX2                !
 ! A11   A(5,7,9)              128.187          estimate D2E/DX2                !
 ! A12   A(8,7,9)              114.8405         estimate D2E/DX2                !
 ! A13   A(7,9,10)             109.4307         estimate D2E/DX2                !
 ! A14   A(7,9,11)             112.5053         estimate D2E/DX2                !
 ! A15   A(7,9,15)             106.9944         estimate D2E/DX2                !
 ! A16   A(10,9,11)            109.317          estimate D2E/DX2                !
 ! A17   A(10,9,15)            109.1047         estimate D2E/DX2                !
 ! A18   A(11,9,15)            109.4183         estimate D2E/DX2                !
 ! A19   A(9,11,12)            109.6346         estimate D2E/DX2                !
 ! A20   A(9,11,13)            111.3268         estimate D2E/DX2                !
 ! A21   A(9,11,14)            110.3137         estimate D2E/DX2                !
 ! A22   A(12,11,13)           108.6595         estimate D2E/DX2                !
 ! A23   A(12,11,14)           108.3306         estimate D2E/DX2                !
 ! A24   A(13,11,14)           108.5049         estimate D2E/DX2                !
 ! A25   A(9,15,16)            120.8747         estimate D2E/DX2                !
 ! A26   A(9,15,17)            115.7428         estimate D2E/DX2                !
 ! A27   A(16,15,17)           123.3438         estimate D2E/DX2                !
 ! A28   A(15,17,18)           119.1008         estimate D2E/DX2                !
 ! A29   A(15,17,19)           122.4787         estimate D2E/DX2                !
 ! A30   A(18,17,19)           118.4133         estimate D2E/DX2                !
 ! A31   A(17,19,20)           107.4959         estimate D2E/DX2                !
 ! A32   A(17,19,21)           110.9923         estimate D2E/DX2                !
 ! A33   A(17,19,22)           111.0576         estimate D2E/DX2                !
 ! A34   A(20,19,21)           109.0289         estimate D2E/DX2                !
 ! A35   A(20,19,22)           109.1672         estimate D2E/DX2                !
 ! A36   A(21,19,22)           109.0515         estimate D2E/DX2                !
 ! D1    D(2,1,5,6)           -114.1424         estimate D2E/DX2                !
 ! D2    D(2,1,5,7)             64.762          estimate D2E/DX2                !
 ! D3    D(3,1,5,6)            124.8428         estimate D2E/DX2                !
 ! D4    D(3,1,5,7)            -56.2527         estimate D2E/DX2                !
 ! D5    D(4,1,5,6)              4.7568         estimate D2E/DX2                !
 ! D6    D(4,1,5,7)           -176.3387         estimate D2E/DX2                !
 ! D7    D(1,5,7,8)           -157.117          estimate D2E/DX2                !
 ! D8    D(1,5,7,9)             21.7631         estimate D2E/DX2                !
 ! D9    D(6,5,7,8)             21.7928         estimate D2E/DX2                !
 ! D10   D(6,5,7,9)           -159.3272         estimate D2E/DX2                !
 ! D11   D(5,7,9,10)           -34.6332         estimate D2E/DX2                !
 ! D12   D(5,7,9,11)            87.0918         estimate D2E/DX2                !
 ! D13   D(5,7,9,15)          -152.7143         estimate D2E/DX2                !
 ! D14   D(8,7,9,10)           144.2668         estimate D2E/DX2                !
 ! D15   D(8,7,9,11)           -94.0082         estimate D2E/DX2                !
 ! D16   D(8,7,9,15)            26.1857         estimate D2E/DX2                !
 ! D17   D(7,9,11,12)           60.1769         estimate D2E/DX2                !
 ! D18   D(7,9,11,13)         -179.561          estimate D2E/DX2                !
 ! D19   D(7,9,11,14)          -59.0408         estimate D2E/DX2                !
 ! D20   D(10,9,11,12)        -178.0334         estimate D2E/DX2                !
 ! D21   D(10,9,11,13)         -57.7714         estimate D2E/DX2                !
 ! D22   D(10,9,11,14)          62.7489         estimate D2E/DX2                !
 ! D23   D(15,9,11,12)         -58.607          estimate D2E/DX2                !
 ! D24   D(15,9,11,13)          61.655          estimate D2E/DX2                !
 ! D25   D(15,9,11,14)        -177.8247         estimate D2E/DX2                !
 ! D26   D(7,9,15,16)          152.6058         estimate D2E/DX2                !
 ! D27   D(7,9,15,17)          -25.2077         estimate D2E/DX2                !
 ! D28   D(10,9,15,16)          34.3121         estimate D2E/DX2                !
 ! D29   D(10,9,15,17)        -143.5015         estimate D2E/DX2                !
 ! D30   D(11,9,15,16)         -85.2451         estimate D2E/DX2                !
 ! D31   D(11,9,15,17)          96.9413         estimate D2E/DX2                !
 ! D32   D(9,15,17,18)          -4.1946         estimate D2E/DX2                !
 ! D33   D(9,15,17,19)         176.795          estimate D2E/DX2                !
 ! D34   D(16,15,17,18)        178.0519         estimate D2E/DX2                !
 ! D35   D(16,15,17,19)         -0.9586         estimate D2E/DX2                !
 ! D36   D(15,17,19,20)         -0.1482         estimate D2E/DX2                !
 ! D37   D(15,17,19,21)        119.0029         estimate D2E/DX2                !
 ! D38   D(15,17,19,22)       -119.5053         estimate D2E/DX2                !
 ! D39   D(18,17,19,20)       -179.1652         estimate D2E/DX2                !
 ! D40   D(18,17,19,21)        -60.014          estimate D2E/DX2                !
 ! D41   D(18,17,19,22)         61.4777         estimate D2E/DX2                !
 --------------------------------------------------------------------------------
 Trust Radius=3.00D-01 FncErr=1.00D-07 GrdErr=1.00D-06 EigMax=2.50D+02 EigMin=1.00D-04
 Number of steps in this run=    108 maximum allowed number of steps=    132.
 GradGradGradGradGradGradGradGradGradGradGradGradGradGradGradGradGradGrad

 Leave Link  103 at Sat Jul 18 16:38:27 2020, MaxMem=   104857600 cpu:               0.0 elap:               0.0
 (Enter /opt/g16/g16/l202.exe)
                          Input orientation:                          
 ---------------------------------------------------------------------
 Center     Atomic      Atomic             Coordinates (Angstroms)
 Number     Number       Type             X           Y           Z
 ---------------------------------------------------------------------
      1          6           0       -2.730390    0.677638    1.303114
      2          1           0       -2.769727   -0.405858    1.133656
      3          1           0       -2.776344    1.172700    0.326791
      4          1           0       -3.601275    0.969282    1.890349
      5          6           0       -1.489920    1.065953    2.089190
      6          8           0       -1.570678    1.539363    3.244072
      7          7           0       -0.270006    0.856909    1.494120
      8          1           0        0.533764    0.770459    2.109245
      9          6           0        0.028145    0.718204    0.073285
     10          1           0       -0.802533    0.203542   -0.425393
     11          6           0        0.273706    2.083020   -0.617021
     12          1           0        1.124111    2.585601   -0.146024
     13          1           0        0.488163    1.956952   -1.684569
     14          1           0       -0.606128    2.725032   -0.513021
     15          6           0        1.295624   -0.146553   -0.037849
     16          8           0        1.509149   -0.846189   -1.054284
     17          7           0        2.121586   -0.128876    1.046863
     18          1           0        1.903271    0.482057    1.820305
     19          6           0        3.330640   -0.949055    1.127246
     20          1           0        3.400341   -1.522030    0.201724
     21          1           0        4.223552   -0.322888    1.227676
     22          1           0        3.281541   -1.640430    1.975402
 ---------------------------------------------------------------------
                    Distance matrix (angstroms):
                    1          2          3          4          5
     1  C    0.000000
     2  H    1.097373   0.000000
     3  H    1.095630   1.772828   0.000000
     4  H    1.090111   1.776251   1.779495   0.000000
     5  C    1.519036   2.171907   2.184567   2.122900   0.000000
     6  O    2.419674   3.110541   3.177830   2.506170   1.250757
     7  N    2.474290   2.823671   2.782824   3.356632   1.373316
     8  H    3.363505   3.639856   3.780973   4.145599   2.045242
     9  C    3.020537   3.196246   2.852366   4.066627   2.547415
    10  H    2.632325   2.582993   2.324000   3.712408   2.745793
    11  C    3.832312   4.303704   3.319981   4.747926   3.386500
    12  H    4.538447   5.074286   4.175332   5.393382   3.760142
    13  H    4.574054   4.913156   3.913774   5.520782   4.352924
    14  H    3.464485   4.146707   2.797295   4.222529   3.210161
    15  C    4.322761   4.238720   4.295849   5.379838   3.708601
    16  O    5.084591   4.825946   4.934444   6.171162   4.746802
    17  N    4.925221   4.899918   5.118820   5.888001   3.944241
    18  H    4.666536   4.805912   4.960481   5.526511   3.453546
    19  C    6.277989   6.124507   6.514433   7.232828   5.312569
    20  H    6.605866   6.339091   6.740078   7.621071   5.845924
    21  H    7.025956   6.994403   7.214356   7.958440   5.942630
    22  H    6.478327   6.233021   6.879650   7.361453   5.486738
                    6          7          8          9         10
     6  O    0.000000
     7  N    2.284693   0.000000
     8  H    2.511517   1.015824   0.000000
     9  C    3.644781   1.458392   2.098455   0.000000
    10  H    3.979879   2.096427   2.920869   1.097080   0.000000
    11  C    4.313393   2.501178   3.036935   1.549047   2.174270
    12  H    4.455250   2.760799   2.954571   2.176329   3.076395
    13  H    5.357677   3.448040   3.975282   2.199128   2.515127
    14  H    4.056097   2.762513   3.463523   2.184815   2.530645
    15  C    4.672153   2.409370   2.455882   1.538395   2.162180
    16  O    5.801040   3.544052   3.684134   2.431483   2.615591
    17  N    4.609074   2.625171   2.111549   2.459246   3.290671
    18  H    3.900427   2.229360   1.429060   2.573702   3.527337
    19  C    5.890339   4.044843   3.426889   3.846695   4.563145
    20  H    6.583239   4.560821   4.136594   4.050537   4.586396
    21  H    6.411469   4.653491   3.948051   4.474140   5.317076
    22  H    5.938403   4.368274   3.657947   4.445873   5.083671
                   11         12         13         14         15
    11  C    0.000000
    12  H    1.094355   0.000000
    13  H    1.096149   1.779536   0.000000
    14  H    1.094123   1.774220   1.777623   0.000000
    15  C    2.520070   2.739668   2.790773   3.476845   0.000000
    16  O    3.209017   3.570766   3.049143   4.185808   1.252287
    17  N    3.328011   3.128309   3.805190   4.244815   1.363498
    18  H    3.340527   2.983025   4.057337   4.095416   2.053563
    19  C    4.645513   4.357038   4.942758   5.629169   2.478456
    20  H    4.841753   4.709010   4.913471   5.882193   2.525701
    21  H    4.979215   4.466866   5.256613   5.970399   3.194591
    22  H    5.443511   5.197527   5.842902   6.353226   3.198236
                   16         17         18         19         20
    16  O    0.000000
    17  N    2.303136   0.000000
    18  H    3.191054   1.009511   0.000000
    19  C    2.843850   1.463204   2.136772   0.000000
    20  H    2.368739   2.071316   2.979493   1.090756   0.000000
    21  H    3.584574   2.118631   2.526430   1.095199   1.779942
    22  H    3.598776   2.119546   2.535475   1.095345   1.781591
                   21         22
    21  H    0.000000
    22  H    1.783927   0.000000
 Stoichiometry    C6H12N2O2
 Framework group  C1[X(C6H12N2O2)]
 Deg. of freedom    60
 Full point group                 C1      NOp   1
 Largest Abelian subgroup         C1      NOp   1
 Largest concise Abelian subgroup C1      NOp   1
                         Standard orientation:                         
 ---------------------------------------------------------------------
 Center     Atomic      Atomic             Coordinates (Angstroms)
 Number     Number       Type             X           Y           Z
 ---------------------------------------------------------------------
      1          6           0       -2.841009    0.422958   -0.995015
      2          1           0       -2.439119    0.349212   -2.013482
      3          1           0       -2.730076    1.461476   -0.663989
      4          1           0       -3.901018    0.169849   -1.020635
      5          6           0       -2.152724   -0.557177   -0.060633
      6          8           0       -2.773601   -1.512061    0.456183
      7          7           0       -0.813524   -0.371149    0.180064
      8          1           0       -0.284184   -1.181237    0.489023
      9          6           0       -0.031241    0.850233    0.027864
     10          1           0       -0.412077    1.423473   -0.826503
     11          6           0       -0.065253    1.738119    1.296741
     12          1           0        0.346297    1.182863    2.145228
     13          1           0        0.521811    2.653451    1.158660
     14          1           0       -1.095218    2.018986    1.536302
     15          6           0        1.418564    0.422841   -0.258601
     16          8           0        2.188947    1.161831   -0.913296
     17          7           0        1.774611   -0.809992    0.202353
     18          1           0        1.111971   -1.339822    0.749436
     19          6           0        3.093929   -1.391353   -0.047420
     20          1           0        3.663746   -0.670865   -0.635599
     21          1           0        3.622619   -1.582831    0.892413
     22          1           0        3.011261   -2.328452   -0.608482
 ---------------------------------------------------------------------
 Rotational constants (GHZ):           2.1028885           0.7420055           0.6423056
 Leave Link  202 at Sat Jul 18 16:38:27 2020, MaxMem=   104857600 cpu:               0.0 elap:               0.0
 (Enter /opt/g16/g16/l301.exe)
 Standard basis: 6-31G (6D, 7F)
 Ernie: Thresh=  0.10000D-02 Tol=  0.10000D-05 Strict=F.
 There are   114 symmetry adapted cartesian basis functions of A   symmetry.
 There are   114 symmetry adapted basis functions of A   symmetry.
   114 basis functions,   268 primitive gaussians,   114 cartesian basis functions
    39 alpha electrons       39 beta electrons
       nuclear repulsion energy       549.6095989712 Hartrees.
 IExCor=  402 DFT=T Ex+Corr=B3LYP ExCW=0 ScaHFX=  0.200000
 ScaDFX=  0.800000  0.720000  1.000000  0.810000 ScalE2=  1.000000  1.000000
 IRadAn=      5 IRanWt=     -1 IRanGd=            0 ICorTp=0 IEmpDi=  4
 NAtoms=   22 NActive=   22 NUniq=   22 SFac= 1.00D+00 NAtFMM=   60 NAOKFM=F Big=F
 Integral buffers will be    131072 words long.
 Raffenetti 2 integral format.
 Two-electron integral symmetry is turned on.
 Leave Link  301 at Sat Jul 18 16:38:27 2020, MaxMem=   104857600 cpu:               0.0 elap:               0.1
 (Enter /opt/g16/g16/l302.exe)
 NPDir=0 NMtPBC=     1 NCelOv=     1 NCel=       1 NClECP=     1 NCelD=      1
         NCelK=      1 NCelE2=     1 NClLst=     1 CellRange=     0.0.
 One-electron integrals computed using PRISM.
 One-electron integral symmetry used in STVInt
 NBasis=   114 RedAO= T EigKep=  3.71D-03  NBF=   114
 NBsUse=   114 1.00D-06 EigRej= -1.00D+00 NBFU=   114
 Precomputing XC quadrature grid using
 IXCGrd= 4 IRadAn=           5 IRanWt=          -1 IRanGd=           0 AccXCQ= 0.00D+00.
 Generated NRdTot=       0 NPtTot=           0 NUsed=           0 NTot=          32
 NSgBfM=   114   114   114   114   114 MxSgAt=    22 MxSgA2=    22.
 Leave Link  302 at Sat Jul 18 16:38:28 2020, MaxMem=   104857600 cpu:               1.1 elap:               1.1
 (Enter /opt/g16/g16/l303.exe)
 DipDrv:  MaxL=1.
 Leave Link  303 at Sat Jul 18 16:38:28 2020, MaxMem=   104857600 cpu:               0.0 elap:               0.0
 (Enter /opt/g16/g16/l401.exe)
 ExpMin= 1.61D-01 ExpMax= 5.48D+03 ExpMxC= 8.25D+02 IAcc=3 IRadAn=         5 AccDes= 0.00D+00
 Harris functional with IExCor=  402 and IRadAn=       5 diagonalized for initial guess.
 HarFok:  IExCor=  402 AccDes= 0.00D+00 IRadAn=         5 IDoV= 1 UseB2=F ITyADJ=14
 ICtDFT=  3500011 ScaDFX=  1.000000  1.000000  1.000000  1.000000
 FoFCou: FMM=F IPFlag=           0 FMFlag=      100000 FMFlg1=           0
         NFxFlg=           0 DoJE=T BraDBF=F KetDBF=T FulRan=T
         wScrn=  0.000000 ICntrl=       500 IOpCl=  0 I1Cent=   200000004 NGrid=           0
         NMat0=    1 NMatS0=      1 NMatT0=    0 NMatD0=    1 NMtDS0=    0 NMtDT0=    0
 Petite list used in FoFCou.
 Harris En= -495.726551872632    
 JPrj=0 DoOrth=F DoCkMO=F.
 Leave Link  401 at Sat Jul 18 16:38:35 2020, MaxMem=   104857600 cpu:               6.1 elap:               6.1
 (Enter /opt/g16/g16/l502.exe)
 Keep R1 ints in memory in canonical form, NReq=22427569.
 FoFCou: FMM=F IPFlag=           0 FMFlag=           0 FMFlg1=           0
         NFxFlg=           0 DoJE=F BraDBF=F KetDBF=F FulRan=T
         wScrn=  0.000000 ICntrl=       600 IOpCl=  0 I1Cent=           0 NGrid=           0
         NMat0=    1 NMatS0=   6555 NMatT0=    0 NMatD0=    1 NMtDS0=    0 NMtDT0=    0
 Symmetry not used in FoFCou.
 Two-electron integral symmetry not used.
 Closed shell SCF:
 Using DIIS extrapolation, IDIIS=  1040.
 NGot=   104857600 LenX=    83341928 LenY=    83328491
 Requested convergence on RMS density matrix=1.00D-08 within 128 cycles.
 Requested convergence on MAX density matrix=1.00D-06.
 Requested convergence on             energy=1.00D-06.
 No special actions if energy rises.
 Integral accuracy reduced to 1.0D-05 until final iterations.

 Cycle   1  Pass 0  IDiag  1:
 E= -495.331519520884    
 DIIS: error= 3.62D-02 at cycle   1 NSaved=   1.
 NSaved= 1 IEnMin= 1 EnMin= -495.331519520884     IErMin= 1 ErrMin= 3.62D-02
 ErrMax= 3.62D-02  0.00D+00 EMaxC= 1.00D-01 BMatC= 3.66D-01 BMatP= 3.66D-01
 IDIUse=3 WtCom= 6.38D-01 WtEn= 3.62D-01
 Coeff-Com:  0.100D+01
 Coeff-En:   0.100D+01
 Coeff:      0.100D+01
 Gap=     0.218 Goal=   None    Shift=    0.000
 GapD=    0.218 DampG=1.000 DampE=0.500 DampFc=0.5000 IDamp=-1.
 Damping current iteration by 5.00D-01
 RMSDP=2.08D-02 MaxDP=5.44D-01              OVMax= 3.93D-01

 Cycle   2  Pass 0  IDiag  1:
 E= -495.355156821394     Delta-E=       -0.023637300510 Rises=F Damp=T
 DIIS: error= 2.32D-02 at cycle   2 NSaved=   2.
 NSaved= 2 IEnMin= 2 EnMin= -495.355156821394     IErMin= 2 ErrMin= 2.32D-02
 ErrMax= 2.32D-02  0.00D+00 EMaxC= 1.00D-01 BMatC= 1.08D-01 BMatP= 3.66D-01
 IDIUse=3 WtCom= 7.68D-01 WtEn= 2.32D-01
 Coeff-Com:  0.318D+00 0.682D+00
 Coeff-En:   0.471D+00 0.529D+00
 Coeff:      0.354D+00 0.646D+00
 Gap=     0.283 Goal=   None    Shift=    0.000
 RMSDP=6.88D-03 MaxDP=1.71D-01 DE=-2.36D-02 OVMax= 2.32D-01

 Cycle   3  Pass 0  IDiag  1:
 E= -495.604593881394     Delta-E=       -0.249437060000 Rises=F Damp=F
 DIIS: error= 2.15D-02 at cycle   3 NSaved=   3.
 NSaved= 3 IEnMin= 3 EnMin= -495.604593881394     IErMin= 3 ErrMin= 2.15D-02
 ErrMax= 2.15D-02  0.00D+00 EMaxC= 1.00D-01 BMatC= 7.36D-02 BMatP= 1.08D-01
 IDIUse=3 WtCom= 7.85D-01 WtEn= 2.15D-01
 Coeff-Com:  0.151D+00 0.434D+00 0.415D+00
 Coeff-En:   0.000D+00 0.000D+00 0.100D+01
 Coeff:      0.119D+00 0.341D+00 0.540D+00
 Gap=     0.257 Goal=   None    Shift=    0.000
 RMSDP=3.88D-03 MaxDP=6.99D-02 DE=-2.49D-01 OVMax= 1.06D-01

 Cycle   4  Pass 0  IDiag  1:
 E= -495.657698891496     Delta-E=       -0.053105010101 Rises=F Damp=F
 DIIS: error= 1.26D-02 at cycle   4 NSaved=   4.
 NSaved= 4 IEnMin= 4 EnMin= -495.657698891496     IErMin= 4 ErrMin= 1.26D-02
 ErrMax= 1.26D-02  0.00D+00 EMaxC= 1.00D-01 BMatC= 1.99D-02 BMatP= 7.36D-02
 IDIUse=3 WtCom= 8.74D-01 WtEn= 1.26D-01
 Coeff-Com:  0.487D-01 0.550D-01 0.331D+00 0.565D+00
 Coeff-En:   0.000D+00 0.000D+00 0.237D+00 0.763D+00
 Coeff:      0.426D-01 0.481D-01 0.319D+00 0.590D+00
 Gap=     0.245 Goal=   None    Shift=    0.000
 RMSDP=1.54D-03 MaxDP=2.92D-02 DE=-5.31D-02 OVMax= 4.02D-02

 Cycle   5  Pass 0  IDiag  1:
 E= -495.674358805082     Delta-E=       -0.016659913586 Rises=F Damp=F
 DIIS: error= 2.21D-03 at cycle   5 NSaved=   5.
 NSaved= 5 IEnMin= 5 EnMin= -495.674358805082     IErMin= 5 ErrMin= 2.21D-03
 ErrMax= 2.21D-03  0.00D+00 EMaxC= 1.00D-01 BMatC= 5.34D-04 BMatP= 1.99D-02
 IDIUse=3 WtCom= 9.78D-01 WtEn= 2.21D-02
 Coeff-Com:  0.984D-02-0.908D-02 0.135D+00 0.329D+00 0.534D+00
 Coeff-En:   0.000D+00 0.000D+00 0.000D+00 0.000D+00 0.100D+01
 Coeff:      0.963D-02-0.888D-02 0.132D+00 0.322D+00 0.545D+00
 Gap=     0.244 Goal=   None    Shift=    0.000
 RMSDP=2.36D-04 MaxDP=4.83D-03 DE=-1.67D-02 OVMax= 8.02D-03

 Cycle   6  Pass 0  IDiag  1:
 E= -495.674820528344     Delta-E=       -0.000461723262 Rises=F Damp=F
 DIIS: error= 6.76D-04 at cycle   6 NSaved=   6.
 NSaved= 6 IEnMin= 6 EnMin= -495.674820528344     IErMin= 6 ErrMin= 6.76D-04
 ErrMax= 6.76D-04  0.00D+00 EMaxC= 1.00D-01 BMatC= 3.95D-05 BMatP= 5.34D-04
 IDIUse=3 WtCom= 9.93D-01 WtEn= 6.76D-03
 Coeff-Com:  0.275D-02-0.835D-02 0.462D-01 0.116D+00 0.279D+00 0.564D+00
 Coeff-En:   0.000D+00 0.000D+00 0.000D+00 0.000D+00 0.000D+00 0.100D+01
 Coeff:      0.273D-02-0.829D-02 0.459D-01 0.115D+00 0.277D+00 0.567D+00
 Gap=     0.244 Goal=   None    Shift=    0.000
 RMSDP=7.31D-05 MaxDP=1.57D-03 DE=-4.62D-04 OVMax= 2.08D-03

 Cycle   7  Pass 0  IDiag  1:
 E= -495.674847851066     Delta-E=       -0.000027322722 Rises=F Damp=F
 DIIS: error= 3.01D-04 at cycle   7 NSaved=   7.
 NSaved= 7 IEnMin= 7 EnMin= -495.674847851066     IErMin= 7 ErrMin= 3.01D-04
 ErrMax= 3.01D-04  0.00D+00 EMaxC= 1.00D-01 BMatC= 8.96D-06 BMatP= 3.95D-05
 IDIUse=3 WtCom= 9.97D-01 WtEn= 3.01D-03
 Coeff-Com:  0.775D-03-0.450D-02 0.122D-01 0.294D-01 0.116D+00 0.391D+00
 Coeff-Com:  0.455D+00
 Coeff-En:   0.000D+00 0.000D+00 0.000D+00 0.000D+00 0.000D+00 0.925D-01
 Coeff-En:   0.907D+00
 Coeff:      0.772D-03-0.448D-02 0.121D-01 0.293D-01 0.115D+00 0.390D+00
 Coeff:      0.457D+00
 Gap=     0.244 Goal=   None    Shift=    0.000
 RMSDP=3.48D-05 MaxDP=8.98D-04 DE=-2.73D-05 OVMax= 7.70D-04

 Cycle   8  Pass 0  IDiag  1:
 E= -495.674854556473     Delta-E=       -0.000006705407 Rises=F Damp=F
 DIIS: error= 7.23D-05 at cycle   8 NSaved=   8.
 NSaved= 8 IEnMin= 8 EnMin= -495.674854556473     IErMin= 8 ErrMin= 7.23D-05
 ErrMax= 7.23D-05  0.00D+00 EMaxC= 1.00D-01 BMatC= 8.29D-07 BMatP= 8.96D-06
 IDIUse=1 WtCom= 1.00D+00 WtEn= 0.00D+00
 Coeff-Com:  0.286D-03-0.145D-02 0.149D-02 0.137D-02 0.341D-01 0.167D+00
 Coeff-Com:  0.288D+00 0.509D+00
 Coeff:      0.286D-03-0.145D-02 0.149D-02 0.137D-02 0.341D-01 0.167D+00
 Coeff:      0.288D+00 0.509D+00
 Gap=     0.244 Goal=   None    Shift=    0.000
 RMSDP=1.01D-05 MaxDP=1.90D-04 DE=-6.71D-06 OVMax= 2.05D-04

 Cycle   9  Pass 0  IDiag  1:
 E= -495.674855267389     Delta-E=       -0.000000710917 Rises=F Damp=F
 DIIS: error= 7.21D-06 at cycle   9 NSaved=   9.
 NSaved= 9 IEnMin= 9 EnMin= -495.674855267389     IErMin= 9 ErrMin= 7.21D-06
 ErrMax= 7.21D-06  0.00D+00 EMaxC= 1.00D-01 BMatC= 1.06D-08 BMatP= 8.29D-07
 IDIUse=1 WtCom= 1.00D+00 WtEn= 0.00D+00
 Coeff-Com:  0.505D-04-0.129D-03-0.913D-04-0.956D-03 0.243D-02 0.136D-01
 Coeff-Com:  0.351D-01 0.112D+00 0.838D+00
 Coeff:      0.505D-04-0.129D-03-0.913D-04-0.956D-03 0.243D-02 0.136D-01
 Coeff:      0.351D-01 0.112D+00 0.838D+00
 Gap=     0.244 Goal=   None    Shift=    0.000
 RMSDP=1.43D-06 MaxDP=3.33D-05 DE=-7.11D-07 OVMax= 2.34D-05

 Initial convergence to 1.0D-05 achieved.  Increase integral accuracy.
 Cycle  10  Pass 1  IDiag  1:
 E= -495.674856412418     Delta-E=       -0.000001145029 Rises=F Damp=F
 DIIS: error= 3.35D-06 at cycle   1 NSaved=   1.
 NSaved= 1 IEnMin= 1 EnMin= -495.674856412418     IErMin= 1 ErrMin= 3.35D-06
 ErrMax= 3.35D-06  0.00D+00 EMaxC= 1.00D-01 BMatC= 5.01D-09 BMatP= 5.01D-09
 IDIUse=1 WtCom= 1.00D+00 WtEn= 0.00D+00
 Coeff-Com:  0.100D+01
 Coeff:      0.100D+01
 Gap=     0.244 Goal=   None    Shift=    0.000
 RMSDP=1.43D-06 MaxDP=3.33D-05 DE=-1.15D-06 OVMax= 2.38D-05

 Cycle  11  Pass 1  IDiag  1:
 E= -495.674856414548     Delta-E=       -0.000000002130 Rises=F Damp=F
 DIIS: error= 5.46D-06 at cycle   2 NSaved=   2.
 NSaved= 2 IEnMin= 2 EnMin= -495.674856414548     IErMin= 1 ErrMin= 3.35D-06
 ErrMax= 5.46D-06  0.00D+00 EMaxC= 1.00D-01 BMatC= 5.50D-09 BMatP= 5.01D-09
 IDIUse=1 WtCom= 1.00D+00 WtEn= 0.00D+00
 Coeff-Com:  0.515D+00 0.485D+00
 Coeff:      0.515D+00 0.485D+00
 Gap=     0.244 Goal=   None    Shift=    0.000
 RMSDP=8.91D-07 MaxDP=2.11D-05 DE=-2.13D-09 OVMax= 1.85D-05

 Cycle  12  Pass 1  IDiag  1:
 E= -495.674856419032     Delta-E=       -0.000000004484 Rises=F Damp=F
 DIIS: error= 2.21D-06 at cycle   3 NSaved=   3.
 NSaved= 3 IEnMin= 3 EnMin= -495.674856419032     IErMin= 3 ErrMin= 2.21D-06
 ErrMax= 2.21D-06  0.00D+00 EMaxC= 1.00D-01 BMatC= 7.28D-10 BMatP= 5.01D-09
 IDIUse=1 WtCom= 1.00D+00 WtEn= 0.00D+00
 Coeff-Com:  0.519D-01 0.261D+00 0.687D+00
 Coeff:      0.519D-01 0.261D+00 0.687D+00
 Gap=     0.244 Goal=   None    Shift=    0.000
 RMSDP=4.58D-07 MaxDP=1.03D-05 DE=-4.48D-09 OVMax= 9.14D-06

 Cycle  13  Pass 1  IDiag  1:
 E= -495.674856419338     Delta-E=       -0.000000000307 Rises=F Damp=F
 DIIS: error= 1.51D-06 at cycle   4 NSaved=   4.
 NSaved= 4 IEnMin= 4 EnMin= -495.674856419338     IErMin= 4 ErrMin= 1.51D-06
 ErrMax= 1.51D-06  0.00D+00 EMaxC= 1.00D-01 BMatC= 3.92D-10 BMatP= 7.28D-10
 IDIUse=1 WtCom= 1.00D+00 WtEn= 0.00D+00
 Coeff-Com: -0.181D-01 0.140D+00 0.509D+00 0.369D+00
 Coeff:     -0.181D-01 0.140D+00 0.509D+00 0.369D+00
 Gap=     0.244 Goal=   None    Shift=    0.000
 RMSDP=1.94D-07 MaxDP=3.96D-06 DE=-3.07D-10 OVMax= 4.51D-06

 Cycle  14  Pass 1  IDiag  1:
 E= -495.674856419662     Delta-E=       -0.000000000324 Rises=F Damp=F
 DIIS: error= 1.84D-07 at cycle   5 NSaved=   5.
 NSaved= 5 IEnMin= 5 EnMin= -495.674856419662     IErMin= 5 ErrMin= 1.84D-07
 ErrMax= 1.84D-07  0.00D+00 EMaxC= 1.00D-01 BMatC= 5.13D-12 BMatP= 3.92D-10
 IDIUse=1 WtCom= 1.00D+00 WtEn= 0.00D+00
 Coeff-Com: -0.121D-01 0.649D-01 0.247D+00 0.199D+00 0.501D+00
 Coeff:     -0.121D-01 0.649D-01 0.247D+00 0.199D+00 0.501D+00
 Gap=     0.244 Goal=   None    Shift=    0.000
 RMSDP=1.94D-08 MaxDP=3.69D-07 DE=-3.24D-10 OVMax= 3.76D-07

 Cycle  15  Pass 1  IDiag  1:
 E= -495.674856419662     Delta-E=        0.000000000000 Rises=F Damp=F
 DIIS: error= 3.18D-08 at cycle   6 NSaved=   6.
 NSaved= 6 IEnMin= 5 EnMin= -495.674856419662     IErMin= 6 ErrMin= 3.18D-08
 ErrMax= 3.18D-08  0.00D+00 EMaxC= 1.00D-01 BMatC= 1.34D-13 BMatP= 5.13D-12
 IDIUse=1 WtCom= 1.00D+00 WtEn= 0.00D+00
 Coeff-Com: -0.229D-02 0.813D-02 0.341D-01 0.320D-01 0.171D+00 0.757D+00
 Coeff:     -0.229D-02 0.813D-02 0.341D-01 0.320D-01 0.171D+00 0.757D+00
 Gap=     0.244 Goal=   None    Shift=    0.000
 RMSDP=5.07D-09 MaxDP=8.24D-08 DE= 4.55D-13 OVMax= 1.41D-07

 SCF Done:  E(RB3LYP) =  -495.674856420     A.U. after   15 cycles
            NFock= 15  Conv=0.51D-08     -V/T= 2.0055
 KE= 4.929410272020D+02 PE=-2.255631396323D+03 EE= 7.174059137299D+02
 Leave Link  502 at Sat Jul 18 16:39:33 2020, MaxMem=   104857600 cpu:              58.4 elap:              58.4
 (Enter /opt/g16/g16/l601.exe)
 Copying SCF densities to generalized density rwf, IOpCl= 0 IROHF=0.

 **********************************************************************

            Population analysis using the SCF density.

 **********************************************************************

 Orbital symmetries:
       Occupied  (A) (A) (A) (A) (A) (A) (A) (A) (A) (A) (A) (A)
                 (A) (A) (A) (A) (A) (A) (A) (A) (A) (A) (A) (A)
                 (A) (A) (A) (A) (A) (A) (A) (A) (A) (A) (A) (A)
                 (A) (A) (A)
       Virtual   (A) (A) (A) (A) (A) (A) (A) (A) (A) (A) (A) (A)
                 (A) (A) (A) (A) (A) (A) (A) (A) (A) (A) (A) (A)
                 (A) (A) (A) (A) (A) (A) (A) (A) (A) (A) (A) (A)
                 (A) (A) (A) (A) (A) (A) (A) (A) (A) (A) (A) (A)
                 (A) (A) (A) (A) (A) (A) (A) (A) (A) (A) (A) (A)
                 (A) (A) (A) (A) (A) (A) (A) (A) (A) (A) (A) (A)
                 (A) (A) (A)
 The electronic state is 1-A.
 Alpha  occ. eigenvalues --  -19.12451 -19.11602 -14.38195 -14.36490 -10.30726
 Alpha  occ. eigenvalues --  -10.30124 -10.25407 -10.22783 -10.19303 -10.19244
 Alpha  occ. eigenvalues --   -1.05377  -1.04199  -0.95867  -0.92832  -0.78776
 Alpha  occ. eigenvalues --   -0.74996  -0.73122  -0.66735  -0.62583  -0.59311
 Alpha  occ. eigenvalues --   -0.55044  -0.50455  -0.47892  -0.47515  -0.45816
 Alpha  occ. eigenvalues --   -0.45461  -0.43911  -0.42495  -0.41151  -0.41039
 Alpha  occ. eigenvalues --   -0.40067  -0.38696  -0.38479  -0.37293  -0.35486
 Alpha  occ. eigenvalues --   -0.27428  -0.26728  -0.25536  -0.24151
 Alpha virt. eigenvalues --    0.00245   0.00653   0.03477   0.07955   0.10619
 Alpha virt. eigenvalues --    0.11922   0.13498   0.14889   0.14895   0.15424
 Alpha virt. eigenvalues --    0.15735   0.15972   0.16618   0.18894   0.19603
 Alpha virt. eigenvalues --    0.19949   0.22455   0.23657   0.25932   0.30887
 Alpha virt. eigenvalues --    0.35285   0.36548   0.40589   0.49954   0.51761
 Alpha virt. eigenvalues --    0.52501   0.53176   0.54853   0.55716   0.57814
 Alpha virt. eigenvalues --    0.58627   0.60265   0.62027   0.65146   0.66019
 Alpha virt. eigenvalues --    0.67864   0.68498   0.70836   0.73857   0.74575
 Alpha virt. eigenvalues --    0.76008   0.77250   0.79374   0.82907   0.87624
 Alpha virt. eigenvalues --    0.88523   0.89527   0.90621   0.91659   0.92805
 Alpha virt. eigenvalues --    0.93140   0.94558   0.95870   0.96115   0.97297
 Alpha virt. eigenvalues --    0.97783   0.99314   1.01958   1.02378   1.04924
 Alpha virt. eigenvalues --    1.07832   1.09130   1.13176   1.16778   1.21235
 Alpha virt. eigenvalues --    1.23882   1.27946   1.34071   1.43766   1.49820
 Alpha virt. eigenvalues --    1.58300   1.62260   1.69908   1.88172   2.00822
          Condensed to atoms (all electrons):
               1          2          3          4          5          6
     1  C    5.455368   0.350636   0.341536   0.351137   0.250619  -0.106465
     2  H    0.350636   0.545291  -0.028183  -0.022068  -0.021784   0.001382
     3  H    0.341536  -0.028183   0.564489  -0.022698  -0.020147   0.002137
     4  H    0.351137  -0.022068  -0.022698   0.519685  -0.021086   0.005846
     5  C    0.250619  -0.021784  -0.020147  -0.021086   4.681978   0.599164
     6  O   -0.106465   0.001382   0.002137   0.005846   0.599164   8.070447
     7  N   -0.176358   0.003296   0.002686   0.006392   0.040285  -0.130843
     8  H    0.008348  -0.000350  -0.000187  -0.000148   0.001136   0.009268
     9  C    0.004073  -0.001508   0.000142   0.000164  -0.004547   0.001703
    10  H    0.004995   0.001347   0.000053  -0.000048  -0.007586  -0.000039
    11  C   -0.001885   0.000103   0.000125   0.000008   0.000601   0.000163
    12  H    0.000036  -0.000002  -0.000041   0.000001  -0.000585  -0.000016
    13  H    0.000035  -0.000001  -0.000049  -0.000001  -0.000007  -0.000001
    14  H   -0.000159  -0.000004   0.001739  -0.000018   0.001936  -0.000099
    15  C   -0.000039  -0.000038   0.000207  -0.000007   0.001276  -0.000074
    16  O   -0.000002  -0.000001  -0.000003  -0.000000  -0.000013   0.000000
    17  N   -0.000045   0.000002  -0.000001   0.000000   0.001014  -0.000016
    18  H   -0.000023   0.000003  -0.000000  -0.000000  -0.001235  -0.000207
    19  C    0.000001  -0.000000   0.000000  -0.000000  -0.000016  -0.000000
    20  H   -0.000000   0.000000   0.000000   0.000000   0.000001  -0.000000
    21  H    0.000000   0.000000   0.000000   0.000000   0.000001  -0.000000
    22  H   -0.000000  -0.000000  -0.000000   0.000000  -0.000003   0.000000
               7          8          9         10         11         12
     1  C   -0.176358   0.008348   0.004073   0.004995  -0.001885   0.000036
     2  H    0.003296  -0.000350  -0.001508   0.001347   0.000103  -0.000002
     3  H    0.002686  -0.000187   0.000142   0.000053   0.000125  -0.000041
     4  H    0.006392  -0.000148   0.000164  -0.000048   0.000008   0.000001
     5  C    0.040285   0.001136  -0.004547  -0.007586   0.000601  -0.000585
     6  O   -0.130843   0.009268   0.001703  -0.000039   0.000163  -0.000016
     7  N    7.688244   0.268987   0.085632  -0.049347  -0.079629  -0.000526
     8  H    0.268987   0.427078  -0.038283   0.003505   0.001705   0.000935
     9  C    0.085632  -0.038283   5.429837   0.378903   0.310845  -0.034838
    10  H   -0.049347   0.003505   0.378903   0.549295  -0.044456   0.005150
    11  C   -0.079629   0.001705   0.310845  -0.044456   5.147234   0.368094
    12  H   -0.000526   0.000935  -0.034838   0.005150   0.368094   0.581039
    13  H    0.005596  -0.000038  -0.032477  -0.000680   0.358667  -0.027071
    14  H   -0.002023  -0.000225  -0.030681  -0.003636   0.369451  -0.029108
    15  C   -0.027702  -0.013138   0.219019  -0.025676  -0.053080  -0.007522
    16  O    0.002727   0.000061  -0.092340   0.002262   0.001487  -0.000273
    17  N    0.001507   0.006324  -0.182155   0.004638  -0.000106   0.003919
    18  H   -0.005087   0.019380   0.002523   0.000342  -0.000474   0.000812
    19  C    0.000427  -0.000315   0.004464  -0.000072  -0.000184  -0.000083
    20  H   -0.000115   0.000004   0.001507  -0.000011  -0.000037  -0.000003
    21  H   -0.000008   0.000095  -0.000236  -0.000002   0.000031  -0.000015
    22  H    0.000040  -0.000162  -0.000011   0.000009  -0.000004   0.000003
              13         14         15         16         17         18
     1  C    0.000035  -0.000159  -0.000039  -0.000002  -0.000045  -0.000023
     2  H   -0.000001  -0.000004  -0.000038  -0.000001   0.000002   0.000003
     3  H   -0.000049   0.001739   0.000207  -0.000003  -0.000001  -0.000000
     4  H   -0.000001  -0.000018  -0.000007  -0.000000   0.000000  -0.000000
     5  C   -0.000007   0.001936   0.001276  -0.000013   0.001014  -0.001235
     6  O   -0.000001  -0.000099  -0.000074   0.000000  -0.000016  -0.000207
     7  N    0.005596  -0.002023  -0.027702   0.002727   0.001507  -0.005087
     8  H   -0.000038  -0.000225  -0.013138   0.000061   0.006324   0.019380
     9  C   -0.032477  -0.030681   0.219019  -0.092340  -0.182155   0.002523
    10  H   -0.000680  -0.003636  -0.025676   0.002262   0.004638   0.000342
    11  C    0.358667   0.369451  -0.053080   0.001487  -0.000106  -0.000474
    12  H   -0.027071  -0.029108  -0.007522  -0.000273   0.003919   0.000812
    13  H    0.553073  -0.027530   0.001888   0.002560   0.000295  -0.000048
    14  H   -0.027530   0.564791   0.004492  -0.000050  -0.000133   0.000001
    15  C    0.001888   0.004492   4.754249   0.579106   0.070179  -0.014999
    16  O    0.002560  -0.000050   0.579106   8.084227  -0.124537   0.002745
    17  N    0.000295  -0.000133   0.070179  -0.124537   7.502083   0.290263
    18  H   -0.000048   0.000001  -0.014999   0.002745   0.290263   0.419078
    19  C    0.000002   0.000004  -0.034655  -0.008797   0.207865  -0.023417
    20  H   -0.000004   0.000000   0.003695   0.018958  -0.045181   0.003327
    21  H    0.000001  -0.000000   0.002266   0.000444  -0.043939  -0.002547
    22  H   -0.000000   0.000000   0.001784   0.000482  -0.046262   0.000103
              19         20         21         22
     1  C    0.000001  -0.000000   0.000000  -0.000000
     2  H   -0.000000   0.000000   0.000000  -0.000000
     3  H    0.000000   0.000000   0.000000  -0.000000
     4  H   -0.000000   0.000000   0.000000   0.000000
     5  C   -0.000016   0.000001   0.000001  -0.000003
     6  O   -0.000000  -0.000000  -0.000000   0.000000
     7  N    0.000427  -0.000115  -0.000008   0.000040
     8  H   -0.000315   0.000004   0.000095  -0.000162
     9  C    0.004464   0.001507  -0.000236  -0.000011
    10  H   -0.000072  -0.000011  -0.000002   0.000009
    11  C   -0.000184  -0.000037   0.000031  -0.000004
    12  H   -0.000083  -0.000003  -0.000015   0.000003
    13  H    0.000002  -0.000004   0.000001  -0.000000
    14  H    0.000004   0.000000  -0.000000   0.000000
    15  C   -0.034655   0.003695   0.002266   0.001784
    16  O   -0.008797   0.018958   0.000444   0.000482
    17  N    0.207865  -0.045181  -0.043939  -0.046262
    18  H   -0.023417   0.003327  -0.002547   0.000103
    19  C    4.958102   0.379931   0.380596   0.382865
    20  H    0.379931   0.480591  -0.024841  -0.025014
    21  H    0.380596  -0.024841   0.568583  -0.038831
    22  H    0.382865  -0.025014  -0.038831   0.564741
 Mulliken charges:
               1
     1  C   -0.481807
     2  H    0.171878
     3  H    0.158193
     4  H    0.182842
     5  C    0.499000
     6  O   -0.452350
     7  N   -0.634179
     8  H    0.306021
     9  C   -0.021738
    10  H    0.181055
    11  C   -0.378659
    12  H    0.140094
    13  H    0.165790
    14  H    0.151251
    15  C    0.538770
    16  O   -0.469044
    17  N   -0.645715
    18  H    0.309458
    19  C   -0.246717
    20  H    0.207193
    21  H    0.158403
    22  H    0.160261
 Sum of Mulliken charges =  -0.00000
 Mulliken charges with hydrogens summed into heavy atoms:
               1
     1  C    0.031106
     5  C    0.499000
     6  O   -0.452350
     7  N   -0.328159
     9  C    0.159317
    11  C    0.078476
    15  C    0.538770
    16  O   -0.469044
    17  N   -0.336257
    19  C    0.279140
 Electronic spatial extent (au):  <R**2>=           1868.2514
 Charge=             -0.0000 electrons
 Dipole moment (field-independent basis, Debye):
    X=              1.4169    Y=             -0.0718    Z=              0.7704  Tot=              1.6144
 Quadrupole moment (field-independent basis, Debye-Ang):
   XX=            -69.2414   YY=            -62.5255   ZZ=            -61.2060
   XY=            -17.6492   XZ=              8.9287   YZ=              3.1243
 Traceless Quadrupole moment (field-independent basis, Debye-Ang):
   XX=             -4.9171   YY=              1.7988   ZZ=              3.1183
   XY=            -17.6492   XZ=              8.9287   YZ=              3.1243
 Octapole moment (field-independent basis, Debye-Ang**2):
  XXX=             27.9568  YYY=             -1.6225  ZZZ=             -0.3345  XYY=             13.4193
  XXY=              3.4354  XXZ=             -5.9188  XZZ=             -3.2133  YZZ=             -3.3581
  YYZ=              3.2262  XYZ=              0.2390
 Hexadecapole moment (field-independent basis, Debye-Ang**3):
 XXXX=          -1633.3868 YYYY=           -514.3567 ZZZZ=           -248.5889 XXXY=           -122.7197
 XXXZ=             45.9156 YYYX=            -28.8057 YYYZ=              3.5780 ZZZX=              1.2547
 ZZZY=             -5.3902 XXYY=           -399.1268 XXZZ=           -317.1592 YYZZ=           -130.1120
 XXYZ=             25.7641 YYXZ=             13.3012 ZZXY=             -5.6265
 N-N= 5.496095989712D+02 E-N=-2.255631397266D+03  KE= 4.929410272020D+02
 No NMR shielding tensors so no spin-rotation constants.
 Leave Link  601 at Sat Jul 18 16:39:33 2020, MaxMem=   104857600 cpu:               0.1 elap:               0.1
 (Enter /opt/g16/g16/l701.exe)
 ... and contract with generalized density number  0.
 Compute integral first derivatives.
 Leave Link  701 at Sat Jul 18 16:39:33 2020, MaxMem=   104857600 cpu:               0.1 elap:               0.1
 (Enter /opt/g16/g16/l702.exe)
 L702 exits ... SP integral derivatives will be done elsewhere.
 Leave Link  702 at Sat Jul 18 16:39:33 2020, MaxMem=   104857600 cpu:               0.0 elap:               0.0
 (Enter /opt/g16/g16/l703.exe)
 Integral derivatives from FoFJK, PRISM(SPDF).
 Compute integral first derivatives, UseDBF=F ICtDFT=           0.
 Calling FoFJK, ICntrl=      2127 FMM=F ISym2X=0 I1Cent= 0 IOpClX= 0 NMat=1 NMatS=1 NMatT=0.
 FoFJK:  IHMeth= 1 ICntrl=    2127 DoSepK=F KAlg= 0 I1Cent=           0 FoldK=F
 IRaf=         0 NMat=       1 IRICut=       1 DoRegI=T DoRafI=F ISym2E= 0 IDoP0=0 IntGTp=1.
 FoFCou: FMM=F IPFlag=           0 FMFlag=      100000 FMFlg1=         800
         NFxFlg=           0 DoJE=F BraDBF=F KetDBF=F FulRan=T
         wScrn=  0.000000 ICntrl=      2127 IOpCl=  0 I1Cent=           0 NGrid=           0
         NMat0=    1 NMatS0=      1 NMatT0=    0 NMatD0=    1 NMtDS0=    0 NMtDT0=    0
 Symmetry not used in FoFCou.
 Leave Link  703 at Sat Jul 18 16:39:48 2020, MaxMem=   104857600 cpu:              14.7 elap:              14.7
 (Enter /opt/g16/g16/l716.exe)
 Dipole        = 5.57449694D-01-2.82448352D-02 3.03102906D-01
 ***** Axes restored to original set *****
 -------------------------------------------------------------------
 Center     Atomic                   Forces (Hartrees/Bohr)
 Number     Number              X              Y              Z
 -------------------------------------------------------------------
      1        6           0.000263076    0.003008549   -0.000902761
      2        1           0.001613461    0.000557867   -0.000125969
      3        1          -0.000794229   -0.000006494   -0.000051390
      4        1          -0.000016173    0.000600903   -0.000271204
      5        6          -0.006061751    0.006255260    0.003077139
      6        8           0.001049423   -0.006555699    0.001787565
      7        7          -0.000911770   -0.001386699    0.004127939
      8        1          -0.023098892    0.012313829    0.005190447
      9        6           0.006700755   -0.000257888   -0.001387102
     10        1           0.006420800   -0.002590246   -0.000033060
     11        6          -0.001274548    0.000109013    0.000140866
     12        1           0.000123225    0.001485466   -0.000148555
     13        1           0.000021078   -0.001921986    0.001493996
     14        1          -0.000531859    0.000336268    0.000392979
     15        6          -0.011352594   -0.012769609   -0.010420891
     16        8           0.002063663    0.004343360    0.001425661
     17        7           0.010568836   -0.001331259   -0.000355746
     18        1           0.014868491   -0.003587032   -0.003401190
     19        6           0.001036445    0.001203323   -0.000279219
     20        1          -0.000409704    0.000107662   -0.000243824
     21        1           0.000122949   -0.000191667   -0.000032723
     22        1          -0.000400683    0.000277082    0.000017042
 -------------------------------------------------------------------
 Cartesian Forces:  Max     0.023098892 RMS     0.005180982
 Leave Link  716 at Sat Jul 18 16:39:48 2020, MaxMem=   104857600 cpu:               0.0 elap:               0.0
 (Enter /opt/g16/g16/l103.exe)

 GradGradGradGradGradGradGradGradGradGradGradGradGradGradGradGradGradGrad
 Berny optimization.
 FormGI is forming the generalized inverse of G from B-inverse, IUseBI=4.
 Internal  Forces:  Max     0.049540989 RMS     0.010571566
 Search for a local minimum.
 Step number   1 out of a maximum of  108
 All quantities printed in internal units (Hartrees-Bohrs-Radians)
 RMS Force = .10572D-01 SwitMx=.10000D-02 MixMth= 1
 Mixed Optimization -- RFO/linear search
 Second derivative matrix not updated -- first step.
 ITU=  0
     Eigenvalues ---    0.00230   0.00258   0.00514   0.00856   0.00919
     Eigenvalues ---    0.01054   0.01124   0.01380   0.01388   0.02045
     Eigenvalues ---    0.02175   0.04689   0.04932   0.05449   0.05625
     Eigenvalues ---    0.06549   0.06965   0.07296   0.07427   0.07713
     Eigenvalues ---    0.15998   0.15998   0.16000   0.16000   0.16000
     Eigenvalues ---    0.16000   0.16000   0.16000   0.16000   0.16000
     Eigenvalues ---    0.16000   0.17191   0.17866   0.22000   0.22000
     Eigenvalues ---    0.24983   0.24996   0.25000   0.25000   0.27732
     Eigenvalues ---    0.28662   0.30460   0.33974   0.34007   0.34112
     Eigenvalues ---    0.34170   0.34202   0.34219   0.34314   0.34341
     Eigenvalues ---    0.34725   0.34800   0.36566   0.37166   0.45011
     Eigenvalues ---    0.46055   0.50345   0.52247   0.82397   0.82958
 RFO step:  Lambda=-5.27773923D-02 EMin= 2.30000000D-03
 Linear search not attempted -- first point.
 Maximum step size (   0.300) exceeded in Quadratic search.
    -- Step size scaled by   0.797
 Iteration  1 RMS(Cart)=  0.26539354 RMS(Int)=  0.01421496
 Iteration  2 RMS(Cart)=  0.03403522 RMS(Int)=  0.00086005
 Iteration  3 RMS(Cart)=  0.00072204 RMS(Int)=  0.00081517
 Iteration  4 RMS(Cart)=  0.00000026 RMS(Int)=  0.00081517
 ITry= 1 IFail=0 DXMaxC= 8.93D-01 DCOld= 1.00D+10 DXMaxT= 3.00D-01 DXLimC= 3.00D+00 Rises=F
 Variable       Old X    -DE/DX   Delta X   Delta X   Delta X     New X
                                 (Linear)    (Quad)   (Total)
    R1        2.07373  -0.00059   0.00000  -0.00120  -0.00120   2.07254
    R2        2.07044   0.00008   0.00000   0.00015   0.00015   2.07059
    R3        2.06001   0.00003   0.00000   0.00005   0.00005   2.06007
    R4        2.87056  -0.00123   0.00000  -0.00275  -0.00275   2.86781
    R5        2.36359  -0.00090   0.00000  -0.00081  -0.00081   2.36278
    R6        2.59519   0.00562   0.00000   0.00805   0.00805   2.60324
    R7        1.91963  -0.01618   0.00000  -0.02565  -0.02565   1.89398
    R8        2.75596   0.01962   0.00000   0.03686   0.03686   2.79282
    R9        2.07318  -0.00363   0.00000  -0.00737  -0.00737   2.06581
   R10        2.92727  -0.00109   0.00000  -0.00264  -0.00264   2.92463
   R11        2.90714   0.02127   0.00000   0.04996   0.04996   2.95710
   R12        2.06803   0.00071   0.00000   0.00144   0.00144   2.06947
   R13        2.07142  -0.00123   0.00000  -0.00249  -0.00249   2.06893
   R14        2.06759   0.00066   0.00000   0.00133   0.00133   2.06893
   R15        2.36648  -0.00323   0.00000  -0.00294  -0.00294   2.36354
   R16        2.57664   0.01216   0.00000   0.01685   0.01685   2.59349
   R17        1.90770  -0.00799   0.00000  -0.01241  -0.01241   1.89529
   R18        2.76506  -0.00052   0.00000  -0.00100  -0.00100   2.76406
   R19        2.06123   0.00012   0.00000   0.00025   0.00025   2.06148
   R20        2.06963  -0.00001   0.00000  -0.00002  -0.00002   2.06960
   R21        2.06990  -0.00014   0.00000  -0.00029  -0.00029   2.06961
    A1        1.88286   0.00011   0.00000  -0.00036  -0.00035   1.88251
    A2        1.89516   0.00118   0.00000   0.00512   0.00512   1.90028
    A3        1.94076  -0.00201   0.00000  -0.00762  -0.00761   1.93315
    A4        1.90248  -0.00066   0.00000  -0.00236  -0.00236   1.90012
    A5        1.96046   0.00119   0.00000   0.00409   0.00409   1.96455
    A6        1.88098   0.00023   0.00000   0.00128   0.00128   1.88227
    A7        2.11981   0.00122   0.00000   0.00316   0.00313   2.12294
    A8        2.05134  -0.00058   0.00000  -0.00160  -0.00163   2.04971
    A9        2.11188  -0.00066   0.00000  -0.00181  -0.00184   2.11004
   A10        2.04141  -0.01421   0.00000  -0.05682  -0.05687   1.98454
   A11        2.23728  -0.00884   0.00000  -0.02580  -0.02585   2.21144
   A12        2.00434   0.02308   0.00000   0.08291   0.08286   2.08720
   A13        1.90993  -0.01063   0.00000  -0.05547  -0.05364   1.85629
   A14        1.96359  -0.01338   0.00000  -0.02415  -0.02712   1.93647
   A15        1.86740   0.04178   0.00000   0.18137   0.18279   2.05019
   A16        1.90794   0.01036   0.00000   0.00135  -0.00182   1.90612
   A17        1.90424  -0.01252   0.00000  -0.07163  -0.07063   1.83360
   A18        1.90971  -0.01554   0.00000  -0.03125  -0.03464   1.87507
   A19        1.91348   0.00235   0.00000   0.00927   0.00928   1.92276
   A20        1.94302  -0.00328   0.00000  -0.01281  -0.01281   1.93021
   A21        1.92534  -0.00006   0.00000  -0.00020  -0.00022   1.92512
   A22        1.89647   0.00041   0.00000   0.00145   0.00148   1.89795
   A23        1.89073  -0.00080   0.00000  -0.00197  -0.00199   1.88874
   A24        1.89377   0.00144   0.00000   0.00448   0.00446   1.89823
   A25        2.10966  -0.02380   0.00000  -0.06190  -0.06316   2.04650
   A26        2.02009   0.04954   0.00000   0.13129   0.13003   2.15013
   A27        2.15276  -0.02547   0.00000  -0.06614  -0.06738   2.08537
   A28        2.07870   0.01494   0.00000   0.05266   0.05248   2.13118
   A29        2.13766  -0.00770   0.00000  -0.02258  -0.02273   2.11493
   A30        2.06670  -0.00728   0.00000  -0.03056  -0.03069   2.03601
   A31        1.87616  -0.00067   0.00000  -0.00263  -0.00263   1.87353
   A32        1.93718   0.00061   0.00000   0.00250   0.00250   1.93968
   A33        1.93832  -0.00067   0.00000  -0.00260  -0.00260   1.93572
   A34        1.90291   0.00015   0.00000   0.00073   0.00073   1.90365
   A35        1.90533   0.00045   0.00000   0.00126   0.00126   1.90658
   A36        1.90331   0.00014   0.00000   0.00075   0.00075   1.90406
    D1       -1.99216   0.00008   0.00000   0.00241   0.00242  -1.98974
    D2        1.13031  -0.00111   0.00000  -0.01226  -0.01227   1.11804
    D3        2.17892   0.00055   0.00000   0.00544   0.00545   2.18437
    D4       -0.98179  -0.00064   0.00000  -0.00924  -0.00924  -0.99104
    D5        0.08302   0.00049   0.00000   0.00503   0.00503   0.08806
    D6       -3.07769  -0.00070   0.00000  -0.00965  -0.00966  -3.08735
    D7       -2.74221  -0.00607   0.00000  -0.06530  -0.06491  -2.80712
    D8        0.37984  -0.00423   0.00000  -0.04489  -0.04530   0.33453
    D9        0.38036  -0.00723   0.00000  -0.07985  -0.07943   0.30092
   D10       -2.78078  -0.00538   0.00000  -0.05944  -0.05982  -2.84061
   D11       -0.60446   0.00095   0.00000  -0.00079  -0.00177  -0.60623
   D12        1.52004  -0.00232   0.00000  -0.05440  -0.05525   1.46479
   D13       -2.66537  -0.00201   0.00000   0.01183   0.01290  -2.65247
   D14        2.51793   0.00242   0.00000   0.01796   0.01749   2.53542
   D15       -1.64075  -0.00086   0.00000  -0.03564  -0.03599  -1.67674
   D16        0.45703  -0.00055   0.00000   0.03059   0.03216   0.48919
   D17        1.05029   0.01625   0.00000   0.09134   0.09050   1.14079
   D18       -3.13393   0.01621   0.00000   0.09106   0.09020  -3.04373
   D19       -1.03046   0.01581   0.00000   0.08811   0.08727  -0.94319
   D20       -3.10727   0.00108   0.00000   0.00553   0.00556  -3.10171
   D21       -1.00830   0.00104   0.00000   0.00525   0.00525  -1.00305
   D22        1.09517   0.00064   0.00000   0.00231   0.00233   1.09750
   D23       -1.02289  -0.01729   0.00000  -0.09975  -0.09891  -1.12180
   D24        1.07608  -0.01733   0.00000  -0.10003  -0.09922   0.97686
   D25       -3.10363  -0.01773   0.00000  -0.10298  -0.10215   3.07741
   D26        2.66347  -0.00003   0.00000  -0.04708  -0.04865   2.61482
   D27       -0.43996  -0.00719   0.00000  -0.13764  -0.13943  -0.57939
   D28        0.59886  -0.00406   0.00000  -0.04430  -0.04248   0.55637
   D29       -2.50457  -0.01123   0.00000  -0.13486  -0.13326  -2.63783
   D30       -1.48781   0.00016   0.00000   0.01585   0.01593  -1.47188
   D31        1.69195  -0.00700   0.00000  -0.07472  -0.07485   1.61710
   D32       -0.07321  -0.00001   0.00000   0.00543   0.00478  -0.06843
   D33        3.08565   0.00286   0.00000   0.03863   0.03890   3.12456
   D34        3.10759  -0.00747   0.00000  -0.08788  -0.08816   3.01943
   D35       -0.01673  -0.00460   0.00000  -0.05468  -0.05404  -0.07077
   D36       -0.00259  -0.00148   0.00000  -0.01730  -0.01697  -0.01956
   D37        2.07699  -0.00136   0.00000  -0.01659  -0.01626   2.06073
   D38       -2.08576  -0.00122   0.00000  -0.01570  -0.01538  -2.10114
   D39       -3.12702   0.00116   0.00000   0.01490   0.01458  -3.11244
   D40       -1.04744   0.00128   0.00000   0.01561   0.01529  -1.03216
   D41        1.07299   0.00142   0.00000   0.01650   0.01617   1.08916
         Item               Value     Threshold  Converged?
 Maximum Force            0.049541     0.000450     NO 
 RMS     Force            0.010572     0.000300     NO 
 Maximum Displacement     0.892862     0.001800     NO 
 RMS     Displacement     0.281718     0.001200     NO 
 Predicted change in Energy=-3.118811D-02
 Lowest energy point so far.  Saving SCF results.
 GradGradGradGradGradGradGradGradGradGradGradGradGradGradGradGradGradGrad

 Leave Link  103 at Sat Jul 18 16:39:48 2020, MaxMem=   104857600 cpu:               0.0 elap:               0.0
 (Enter /opt/g16/g16/l202.exe)
                          Input orientation:                          
 ---------------------------------------------------------------------
 Center     Atomic      Atomic             Coordinates (Angstroms)
 Number     Number       Type             X           Y           Z
 ---------------------------------------------------------------------
      1          6           0       -2.842895    0.752808    1.136447
      2          1           0       -2.844427   -0.338305    1.025494
      3          1           0       -2.744373    1.192030    0.137467
      4          1           0       -3.794745    1.064947    1.566509
      5          6           0       -1.739083    1.196149    2.078835
      6          8           0       -1.992607    1.724897    3.183130
      7          7           0       -0.439062    0.957298    1.690754
      8          1           0        0.218256    0.982334    2.446934
      9          6           0        0.036855    0.681677    0.318999
     10          1           0       -0.752538    0.105480   -0.170796
     11          6           0        0.266083    1.997908   -0.462159
     12          1           0        1.082541    2.569193   -0.007949
     13          1           0        0.522250    1.786893   -1.505475
     14          1           0       -0.637694    2.615420   -0.439464
     15          6           0        1.329531   -0.186515    0.164307
     16          8           0        1.425974   -0.892122   -0.863871
     17          7           0        2.365999   -0.157725    1.063433
     18          1           0        2.375753    0.469765    1.845772
     19          6           0        3.545605   -1.004277    0.886511
     20          1           0        3.387975   -1.597356   -0.015399
     21          1           0        4.450612   -0.399864    0.763705
     22          1           0        3.676580   -1.675803    1.741696
 ---------------------------------------------------------------------
                    Distance matrix (angstroms):
                    1          2          3          4          5
     1  C    0.000000
     2  H    1.096741   0.000000
     3  H    1.095711   1.772153   0.000000
     4  H    1.090140   1.779022   1.778087   0.000000
     5  C    1.517579   2.164685   2.186214   2.122602   0.000000
     6  O    2.420095   3.104480   3.182006   2.509323   1.250327
     7  N    2.475376   2.811928   2.789670   3.359708   1.377575
     8  H    3.337769   3.625549   3.762284   4.109277   2.003095
     9  C    2.994368   3.137082   2.833486   4.047757   2.552579
    10  H    2.549021   2.450318   2.289765   3.632332   2.687689
    11  C    3.711004   4.164885   3.173615   4.634246   3.334690
    12  H    4.474141   4.994259   4.069766   5.341310   3.768485
    13  H    4.401509   4.717709   3.704584   5.347405   4.279005
    14  H    3.288727   3.967400   2.607102   4.049057   3.093415
    15  C    4.385946   4.264576   4.300907   5.458071   3.872153
    16  O    4.993026   4.702418   4.768455   6.082169   4.799789
    17  N    5.288381   5.213692   5.366112   6.301015   4.440238
    18  H    5.274234   5.345663   5.445701   6.205424   4.184953
    19  C    6.630440   6.426145   6.704375   7.656685   5.847344
    20  H    6.758236   6.442942   6.738674   7.821877   6.202919
    21  H    7.393432   7.299995   7.395547   8.412853   6.526036
    22  H    6.983411   6.695176   7.212950   7.960095   6.139314
                    6          7          8          9         10
     6  O    0.000000
     7  N    2.286898   0.000000
     8  H    2.445670   1.002249   0.000000
     9  C    3.662004   1.477896   2.156713   0.000000
    10  H    3.925443   2.071045   2.926402   1.093180   0.000000
    11  C    4.297016   2.493016   3.081639   1.547649   2.168816
    12  H    4.511359   2.792682   3.048206   2.182447   3.076348
    13  H    5.320843   3.439219   4.044906   2.187651   2.496718
    14  H    3.968880   2.706778   3.425042   2.183952   2.526890
    15  C    4.878872   2.601205   2.794911   1.564831   2.128982
    16  O    5.908782   3.663989   3.991691   2.409496   2.494288
    17  N    5.199503   3.083046   2.797608   2.585283   3.364204
    18  H    4.737769   2.860927   2.297589   2.801140   3.739713
    19  C    6.587461   4.513551   4.177654   3.933934   4.563276
    20  H    7.086509   4.907486   4.771268   4.066425   4.479692
    21  H    7.203007   5.158509   4.759892   4.566043   5.310502
    22  H    6.766253   4.886136   4.418490   4.563921   5.142731
                   11         12         13         14         15
    11  C    0.000000
    12  H    1.095116   0.000000
    13  H    1.094832   1.780030   0.000000
    14  H    1.094828   1.774134   1.779974   0.000000
    15  C    2.509001   2.772113   2.708176   3.476400   0.000000
    16  O    3.139903   3.582074   2.899223   4.091662   1.250732
    17  N    3.373994   3.198626   3.712175   4.355595   1.372415
    18  H    3.480298   3.084847   4.049835   4.348218   2.086291
    19  C    4.646213   4.431301   4.759507   5.688621   2.470080
    20  H    4.782439   4.761850   4.678231   5.842373   2.501990
    21  H    4.976178   4.555728   5.036181   6.035762   3.185270
    22  H    5.475822   5.273546   5.699490   6.464133   3.196056
                   16         17         18         19         20
    16  O    0.000000
    17  N    2.266602   0.000000
    18  H    3.177889   1.002943   0.000000
    19  C    2.751227   1.462676   2.112234   0.000000
    20  H    2.250934   2.069021   2.959990   1.090886   0.000000
    21  H    3.469835   2.119925   2.496430   1.095187   1.780502
    22  H    3.531057   2.117126   2.511264   1.095191   1.782367
                   21         22
    21  H    0.000000
    22  H    1.784268   0.000000
 Stoichiometry    C6H12N2O2
 Framework group  C1[X(C6H12N2O2)]
 Deg. of freedom    60
 Full point group                 C1      NOp   1
 RotChk:  IX=0 Diff= 1.63D-01
 Largest Abelian subgroup         C1      NOp   1
 Largest concise Abelian subgroup C1      NOp   1
                         Standard orientation:                         
 ---------------------------------------------------------------------
 Center     Atomic      Atomic             Coordinates (Angstroms)
 Number     Number       Type             X           Y           Z
 ---------------------------------------------------------------------
      1          6           0       -2.874063    0.634368   -0.927513
      2          1           0       -2.450414    0.620057   -1.939025
      3          1           0       -2.650786    1.610864   -0.483457
      4          1           0       -3.955719    0.517438   -0.996451
      5          6           0       -2.333392   -0.518195   -0.101487
      6          8           0       -3.072988   -1.445940    0.292981
      7          7           0       -0.982142   -0.528210    0.166348
      8          1           0       -0.631622   -1.427366    0.436825
      9          6           0       -0.057934    0.622529    0.090092
     10          1           0       -0.405604    1.242103   -0.740749
     11          6           0       -0.098384    1.452280    1.395885
     12          1           0        0.285490    0.858791    2.232361
     13          1           0        0.511353    2.356193    1.296797
     14          1           0       -1.127401    1.745370    1.627986
     15          6           0        1.444435    0.321804   -0.227944
     16          8           0        2.086134    1.200057   -0.845377
     17          7           0        2.087274   -0.816935    0.188657
     18          1           0        1.640046   -1.497839    0.773679
     19          6           0        3.488281   -1.063189   -0.151870
     20          1           0        3.827379   -0.223879   -0.760642
     21          1           0        4.108455   -1.125689    0.748637
     22          1           0        3.594072   -1.990546   -0.724810
 ---------------------------------------------------------------------
 Rotational constants (GHZ):           2.3919710           0.6511491           0.5904082
 Leave Link  202 at Sat Jul 18 16:39:48 2020, MaxMem=   104857600 cpu:               0.0 elap:               0.0
 (Enter /opt/g16/g16/l301.exe)
 Standard basis: 6-31G (6D, 7F)
 Ernie: Thresh=  0.10000D-02 Tol=  0.10000D-05 Strict=F.
 There are   114 symmetry adapted cartesian basis functions of A   symmetry.
 There are   114 symmetry adapted basis functions of A   symmetry.
   114 basis functions,   268 primitive gaussians,   114 cartesian basis functions
    39 alpha electrons       39 beta electrons
       nuclear repulsion energy       541.4573123835 Hartrees.
 IExCor=  402 DFT=T Ex+Corr=B3LYP ExCW=0 ScaHFX=  0.200000
 ScaDFX=  0.800000  0.720000  1.000000  0.810000 ScalE2=  1.000000  1.000000
 IRadAn=      5 IRanWt=     -1 IRanGd=            0 ICorTp=0 IEmpDi=  4
 NAtoms=   22 NActive=   22 NUniq=   22 SFac= 1.00D+00 NAtFMM=   60 NAOKFM=F Big=F
 Integral buffers will be    131072 words long.
 Raffenetti 2 integral format.
 Two-electron integral symmetry is turned on.
 Leave Link  301 at Sat Jul 18 16:39:48 2020, MaxMem=   104857600 cpu:               0.0 elap:               0.1
 (Enter /opt/g16/g16/l302.exe)
 NPDir=0 NMtPBC=     1 NCelOv=     1 NCel=       1 NClECP=     1 NCelD=      1
         NCelK=      1 NCelE2=     1 NClLst=     1 CellRange=     0.0.
 One-electron integrals computed using PRISM.
 One-electron integral symmetry used in STVInt
 NBasis=   114 RedAO= T EigKep=  4.10D-03  NBF=   114
 NBsUse=   114 1.00D-06 EigRej= -1.00D+00 NBFU=   114
 Precomputing XC quadrature grid using
 IXCGrd= 4 IRadAn=           5 IRanWt=          -1 IRanGd=           0 AccXCQ= 0.00D+00.
 Generated NRdTot=       0 NPtTot=           0 NUsed=           0 NTot=          32
 NSgBfM=   114   114   114   114   114 MxSgAt=    22 MxSgA2=    22.
 Leave Link  302 at Sat Jul 18 16:39:49 2020, MaxMem=   104857600 cpu:               0.9 elap:               0.9
 (Enter /opt/g16/g16/l303.exe)
 DipDrv:  MaxL=1.
 Leave Link  303 at Sat Jul 18 16:39:49 2020, MaxMem=   104857600 cpu:               0.0 elap:               0.0
 (Enter /opt/g16/g16/l401.exe)
 Initial guess from the checkpoint file:  "/tmp/scratch/Gau-27012.chk"
 B after Tr=     0.000000    0.000000    0.000000
         Rot=    0.998714   -0.049998    0.000698   -0.008338 Ang=  -5.81 deg.
 Guess basis will be translated and rotated to current coordinates.
 JPrj=2 DoOrth=T DoCkMO=T.
 Generating alternative initial guess.
 ExpMin= 1.61D-01 ExpMax= 5.48D+03 ExpMxC= 8.25D+02 IAcc=2 IRadAn=         4 AccDes= 0.00D+00
 Harris functional with IExCor=  402 and IRadAn=       4 diagonalized for initial guess.
 HarFok:  IExCor=  402 AccDes= 0.00D+00 IRadAn=         4 IDoV= 1 UseB2=F ITyADJ=14
 ICtDFT=  3500011 ScaDFX=  1.000000  1.000000  1.000000  1.000000
 FoFCou: FMM=F IPFlag=           0 FMFlag=      100000 FMFlg1=           0
         NFxFlg=           0 DoJE=T BraDBF=F KetDBF=T FulRan=T
         wScrn=  0.000000 ICntrl=       500 IOpCl=  0 I1Cent=   200000004 NGrid=           0
         NMat0=    1 NMatS0=      1 NMatT0=    0 NMatD0=    1 NMtDS0=    0 NMtDT0=    0
 Petite list used in FoFCou.
 Harris En= -495.738426606702    
 Leave Link  401 at Sat Jul 18 16:39:51 2020, MaxMem=   104857600 cpu:               2.4 elap:               2.4
 (Enter /opt/g16/g16/l502.exe)
 Keep R1 ints in memory in canonical form, NReq=22427569.
 FoFCou: FMM=F IPFlag=           0 FMFlag=           0 FMFlg1=           0
         NFxFlg=           0 DoJE=F BraDBF=F KetDBF=F FulRan=T
         wScrn=  0.000000 ICntrl=       600 IOpCl=  0 I1Cent=           0 NGrid=           0
         NMat0=    1 NMatS0=   6555 NMatT0=    0 NMatD0=    1 NMtDS0=    0 NMtDT0=    0
 Symmetry not used in FoFCou.
 Two-electron integral symmetry not used.
 Closed shell SCF:
 Using DIIS extrapolation, IDIIS=  1040.
 NGot=   104857600 LenX=    83341928 LenY=    83328491
 Requested convergence on RMS density matrix=1.00D-08 within 128 cycles.
 Requested convergence on MAX density matrix=1.00D-06.
 Requested convergence on             energy=1.00D-06.
 No special actions if energy rises.
 Integral accuracy reduced to 1.0D-05 until final iterations.

 Cycle   1  Pass 0  IDiag  1:
 E= -495.601976260113    
 DIIS: error= 1.09D-02 at cycle   1 NSaved=   1.
 NSaved= 1 IEnMin= 1 EnMin= -495.601976260113     IErMin= 1 ErrMin= 1.09D-02
 ErrMax= 1.09D-02  0.00D+00 EMaxC= 1.00D-01 BMatC= 4.13D-02 BMatP= 4.13D-02
 IDIUse=3 WtCom= 8.91D-01 WtEn= 1.09D-01
 Coeff-Com:  0.100D+01
 Coeff-En:   0.100D+01
 Coeff:      0.100D+01
 Recover alternate guess density for next cycle.
 RMSDP=7.55D-03 MaxDP=1.33D-01              OVMax= 0.00D+00

 Cycle   2  Pass 0  IDiag  1:
 E= -495.337804070138     Delta-E=        0.264172189975 Rises=F Damp=F
 Switch densities from cycles 1 and 2 for lowest energy.
 DIIS: error= 4.48D-02 at cycle   2 NSaved=   2.
 NSaved= 2 IEnMin= 1 EnMin= -495.601976260113     IErMin= 1 ErrMin= 1.09D-02
 ErrMax= 4.48D-02  0.00D+00 EMaxC= 1.00D+00 BMatC= 3.70D-01 BMatP= 4.13D-02
 IDIUse=1 WtCom= 1.00D+00 WtEn= 0.00D+00
 Coeff-Com:  0.903D+00 0.969D-01
 Coeff:      0.903D+00 0.969D-01
 Gap=     0.249 Goal=   None    Shift=    0.000
 RMSDP=3.60D-03 MaxDP=3.76D-02 DE= 2.64D-01 OVMax= 1.12D-01

 Cycle   3  Pass 0  IDiag  1:
 E= -495.674494809361     Delta-E=       -0.336690739223 Rises=F Damp=F
 DIIS: error= 8.51D-03 at cycle   3 NSaved=   3.
 NSaved= 3 IEnMin= 3 EnMin= -495.674494809361     IErMin= 3 ErrMin= 8.51D-03
 ErrMax= 8.51D-03  0.00D+00 EMaxC= 1.00D+00 BMatC= 1.10D-02 BMatP= 4.13D-02
 IDIUse=1 WtCom= 1.00D+00 WtEn= 0.00D+00
 Coeff-Com: -0.125D-01 0.140D+00 0.873D+00
 Coeff:     -0.125D-01 0.140D+00 0.873D+00
 Gap=     0.250 Goal=   None    Shift=    0.000
 RMSDP=1.32D-03 MaxDP=2.86D-02 DE=-3.37D-01 OVMax= 2.76D-02

 Cycle   4  Pass 0  IDiag  1:
 E= -495.680917484864     Delta-E=       -0.006422675503 Rises=F Damp=F
 DIIS: error= 4.56D-03 at cycle   4 NSaved=   4.
 NSaved= 4 IEnMin= 4 EnMin= -495.680917484864     IErMin= 4 ErrMin= 4.56D-03
 ErrMax= 4.56D-03  0.00D+00 EMaxC= 1.00D+00 BMatC= 3.07D-03 BMatP= 1.10D-02
 IDIUse=1 WtCom= 1.00D+00 WtEn= 0.00D+00
 Coeff-Com: -0.304D-01 0.719D-01 0.532D+00 0.427D+00
 Coeff:     -0.304D-01 0.719D-01 0.532D+00 0.427D+00
 Gap=     0.245 Goal=   None    Shift=    0.000
 RMSDP=6.09D-04 MaxDP=1.21D-02 DE=-6.42D-03 OVMax= 1.41D-02

 Cycle   5  Pass 0  IDiag  1:
 E= -495.683466291716     Delta-E=       -0.002548806852 Rises=F Damp=F
 DIIS: error= 1.45D-03 at cycle   5 NSaved=   5.
 NSaved= 5 IEnMin= 5 EnMin= -495.683466291716     IErMin= 5 ErrMin= 1.45D-03
 ErrMax= 1.45D-03  0.00D+00 EMaxC= 1.00D+00 BMatC= 1.67D-04 BMatP= 3.07D-03
 IDIUse=1 WtCom= 1.00D+00 WtEn= 0.00D+00
 Coeff-Com: -0.127D-01 0.237D-01 0.180D+00 0.238D+00 0.571D+00
 Coeff:     -0.127D-01 0.237D-01 0.180D+00 0.238D+00 0.571D+00
 Gap=     0.244 Goal=   None    Shift=    0.000
 RMSDP=1.69D-04 MaxDP=4.61D-03 DE=-2.55D-03 OVMax= 4.27D-03

 Cycle   6  Pass 0  IDiag  1:
 E= -495.683590962487     Delta-E=       -0.000124670770 Rises=F Damp=F
 DIIS: error= 3.73D-04 at cycle   6 NSaved=   6.
 NSaved= 6 IEnMin= 6 EnMin= -495.683590962487     IErMin= 6 ErrMin= 3.73D-04
 ErrMax= 3.73D-04  0.00D+00 EMaxC= 1.00D+00 BMatC= 2.97D-05 BMatP= 1.67D-04
 IDIUse=1 WtCom= 1.00D+00 WtEn= 0.00D+00
 Coeff-Com: -0.262D-02 0.368D-02 0.287D-01 0.881D-01 0.359D+00 0.524D+00
 Coeff:     -0.262D-02 0.368D-02 0.287D-01 0.881D-01 0.359D+00 0.524D+00
 Gap=     0.244 Goal=   None    Shift=    0.000
 RMSDP=5.49D-05 MaxDP=9.19D-04 DE=-1.25D-04 OVMax= 1.21D-03

 Cycle   7  Pass 0  IDiag  1:
 E= -495.683615093833     Delta-E=       -0.000024131346 Rises=F Damp=F
 DIIS: error= 1.63D-04 at cycle   7 NSaved=   7.
 NSaved= 7 IEnMin= 7 EnMin= -495.683615093833     IErMin= 7 ErrMin= 1.63D-04
 ErrMax= 1.63D-04  0.00D+00 EMaxC= 1.00D+00 BMatC= 2.05D-06 BMatP= 2.97D-05
 IDIUse=1 WtCom= 1.00D+00 WtEn= 0.00D+00
[...]
                    Distance matrix (angstroms):
                    1          2          3          4          5
     1  C    0.000000
     2  H    1.095290   0.000000
     3  H    1.096947   1.770829   0.000000
     4  H    1.090024   1.783191   1.775491   0.000000
     5  C    1.514353   2.176050   2.166895   2.121116   0.000000
     6  O    2.424264   3.188011   3.102350   2.521351   1.249366
     7  N    2.477649   2.753220   2.847863   3.361865   1.384399
     8  H    3.370646   3.719055   3.745448   4.135145   2.020529
     9  C    2.989594   2.898813   3.035108   4.056594   2.561698
    10  H    2.617201   2.549038   2.330122   3.698456   2.713630
    11  C    4.372227   4.411306   4.226284   5.421744   3.739279
    12  H    4.990648   5.018551   5.026409   5.992312   4.097280
    13  H    5.013191   4.892053   4.764092   6.096221   4.621774
    14  H    4.494462   4.770532   4.171354   5.482568   3.829231
    15  C    3.647914   3.082165   3.923139   4.646118   3.460131
    16  O    4.546468   3.870008   4.635784   5.553276   4.592767
    17  N    3.796242   3.156047   4.407705   4.608129   3.459203
    18  H    3.444842   3.016678   4.206296   4.150146   2.825900
    19  C    4.969095   4.152393   5.629153   5.660458   4.795738
    20  H    5.429639   4.535882   5.928756   6.199874   5.423579
    21  H    5.779748   5.064372   6.482896   6.450575   5.372706
    22  H    4.930241   4.037558   5.696636   5.445117   4.945657
                    6          7          8          9         10
     6  O    0.000000
     7  N    2.285255   0.000000
     8  H    2.431983   1.014017   0.000000
     9  C    3.673273   1.467126   2.134123   0.000000
    10  H    3.922596   2.095220   2.936574   1.095238   0.000000
    11  C    4.658241   2.468518   2.577547   1.539644   2.149721
    12  H    4.834072   2.725143   2.464254   2.184312   3.069357
    13  H    5.637284   3.406027   3.629500   2.162519   2.491826
    14  H    4.628648   2.743641   2.757548   2.178817   2.470502
    15  C    4.551776   2.529485   3.128113   1.543835   2.117480
    16  O    5.741020   3.678172   4.268957   2.420132   2.659292
    17  N    4.330638   2.759562   3.217825   2.472909   3.158383
    18  H    3.503945   2.280814   2.618912   2.569641   3.328139
    19  C    5.582698   4.209874   4.608256   3.855478   4.446465
    20  H    6.348023   4.743406   5.214948   4.056063   4.516746
    21  H    6.011760   4.686219   4.866382   4.460438   5.214836
    22  H    5.652038   4.657299   5.141880   4.481703   4.931036
                   11         12         13         14         15
    11  C    0.000000
    12  H    1.097073   0.000000
    13  H    1.091951   1.772290   0.000000
    14  H    1.094176   1.780699   1.783938   0.000000
    15  C    2.518065   2.831490   2.671903   3.473239   0.000000
    16  O    2.968422   3.378711   2.623198   3.945299   1.253062
    17  N    3.535883   3.538425   3.883088   4.459353   1.360979
    18  H    3.686556   3.598465   4.282580   4.464331   2.038609
    19  C    4.788233   4.697681   4.936794   5.788149   2.473032
    20  H    4.853370   4.866087   4.757117   5.898097   2.522346
    21  H    5.174748   4.850589   5.362617   6.190809   3.179838
    22  H    5.614014   5.606839   5.818530   6.549964   3.204784
                   16         17         18         19         20
    16  O    0.000000
    17  N    2.308181   0.000000
    18  H    3.185623   1.010121   0.000000
    19  C    2.850293   1.460476   2.148922   0.000000
    20  H    2.377428   2.070541   2.987775   1.091359   0.000000
    21  H    3.577399   2.118150   2.554292   1.095772   1.781047
    22  H    3.620902   2.116343   2.538082   1.095287   1.782655
                   21         22
    21  H    0.000000
    22  H    1.782020   0.000000
 Stoichiometry    C6H12N2O2
 Framework group  C1[X(C6H12N2O2)]
 Deg. of freedom    60
 Full point group                 C1      NOp   1
 RotChk:  IX=2 Diff= 1.77D-15
 Largest Abelian subgroup         C1      NOp   1
 Largest concise Abelian subgroup C1      NOp   1
                         Standard orientation:                         
 ---------------------------------------------------------------------
 Center     Atomic      Atomic             Coordinates (Angstroms)
 Number     Number       Type             X           Y           Z
 ---------------------------------------------------------------------
      1          6           0       -2.000571   -0.709803   -1.415587
      2          1           0       -1.033893   -1.149056   -1.684383
      3          1           0       -2.153379    0.174325   -2.046664
      4          1           0       -2.794310   -1.426892   -1.625143
      5          6           0       -2.071506   -0.351120    0.053965
      6          8           0       -2.998567   -0.744344    0.793456
      7          7           0       -1.054105    0.434818    0.567540
      8          1           0       -1.193502    0.707387    1.534238
      9          6           0        0.051901    1.065589   -0.161388
     10          1           0       -0.256547    1.229627   -1.199413
     11          6           0        0.391833    2.432637    0.460006
     12          1           0        0.668169    2.321820    1.515908
     13          1           0        1.241256    2.869318   -0.069283
     14          1           0       -0.465643    3.108768    0.390708
     15          6           0        1.330721    0.204607   -0.243571
     16          8           0        2.314921    0.623361   -0.896381
     17          7           0        1.309644   -0.981849    0.422869
     18          1           0        0.469849   -1.223038    0.929739
     19          6           0        2.454390   -1.888561    0.443382
     20          1           0        3.234731   -1.448549   -0.179932
     21          1           0        2.839177   -2.015458    1.461494
     22          1           0        2.183874   -2.871264    0.042421
 ---------------------------------------------------------------------
 Rotational constants (GHZ):           1.7434641           0.8649343           0.7046416
 Leave Link  202 at Sat Jul 18 17:12:39 2020, MaxMem=   104857600 cpu:               0.0 elap:               0.0
 (Enter /opt/g16/g16/l601.exe)
 Copying SCF densities to generalized density rwf, IOpCl= 0 IROHF=0.

 **********************************************************************

            Population analysis using the SCF density.

 **********************************************************************

 Orbital symmetries:
       Occupied  (A) (A) (A) (A) (A) (A) (A) (A) (A) (A) (A) (A)
                 (A) (A) (A) (A) (A) (A) (A) (A) (A) (A) (A) (A)
                 (A) (A) (A) (A) (A) (A) (A) (A) (A) (A) (A) (A)
                 (A) (A) (A)
       Virtual   (A) (A) (A) (A) (A) (A) (A) (A) (A) (A) (A) (A)
                 (A) (A) (A) (A) (A) (A) (A) (A) (A) (A) (A) (A)
                 (A) (A) (A) (A) (A) (A) (A) (A) (A) (A) (A) (A)
                 (A) (A) (A) (A) (A) (A) (A) (A) (A) (A) (A) (A)
                 (A) (A) (A) (A) (A) (A) (A) (A) (A) (A) (A) (A)
                 (A) (A) (A) (A) (A) (A) (A) (A) (A) (A) (A) (A)
                 (A) (A) (A)
 The electronic state is 1-A.
 Alpha  occ. eigenvalues --  -19.11974 -19.11667 -14.37047 -14.36947 -10.30498
 Alpha  occ. eigenvalues --  -10.29706 -10.25330 -10.22050 -10.19562 -10.19415
 Alpha  occ. eigenvalues --   -1.04898  -1.04298  -0.94576  -0.92573  -0.78778
 Alpha  occ. eigenvalues --   -0.75236  -0.72554  -0.66067  -0.60286  -0.59460
 Alpha  occ. eigenvalues --   -0.54546  -0.51137  -0.48552  -0.46408  -0.46090
 Alpha  occ. eigenvalues --   -0.44933  -0.42804  -0.41889  -0.41310  -0.40943
 Alpha  occ. eigenvalues --   -0.39700  -0.38858  -0.38329  -0.36997  -0.35871
 Alpha  occ. eigenvalues --   -0.28226  -0.25865  -0.25573  -0.24210
 Alpha virt. eigenvalues --    0.00645   0.01094   0.06746   0.08779   0.09733
 Alpha virt. eigenvalues --    0.11931   0.12636   0.14349   0.15055   0.15538
 Alpha virt. eigenvalues --    0.15815   0.16339   0.16644   0.17512   0.18430
 Alpha virt. eigenvalues --    0.20159   0.20801   0.24137   0.25961   0.31798
 Alpha virt. eigenvalues --    0.32220   0.35365   0.41935   0.50444   0.51113
 Alpha virt. eigenvalues --    0.52369   0.54136   0.54572   0.56286   0.57757
 Alpha virt. eigenvalues --    0.59524   0.60339   0.62613   0.66233   0.66394
 Alpha virt. eigenvalues --    0.67440   0.67945   0.72475   0.74425   0.74654
 Alpha virt. eigenvalues --    0.76196   0.77458   0.80308   0.84488   0.88080
 Alpha virt. eigenvalues --    0.88914   0.89964   0.90236   0.91626   0.92524
 Alpha virt. eigenvalues --    0.93646   0.94008   0.95049   0.96015   0.97168
 Alpha virt. eigenvalues --    0.97925   0.99378   1.01044   1.02996   1.05638
 Alpha virt. eigenvalues --    1.06232   1.08610   1.14630   1.16103   1.21672
 Alpha virt. eigenvalues --    1.24537   1.27046   1.37050   1.45046   1.52849
 Alpha virt. eigenvalues --    1.54614   1.59231   1.76836   1.88978   2.05911
          Condensed to atoms (all electrons):
               1          2          3          4          5          6
     1  C    5.465105   0.341000   0.349389   0.351636   0.236546  -0.104561
     2  H    0.341000   0.555458  -0.027565  -0.022366  -0.019334   0.002045
     3  H    0.349389  -0.027565   0.545673  -0.021130  -0.022021   0.001312
     4  H    0.351636  -0.022366  -0.021130   0.516814  -0.020545   0.005372
     5  C    0.236546  -0.019334  -0.022021  -0.020545   4.698184   0.602046
     6  O   -0.104561   0.002045   0.001312   0.005372   0.602046   8.064143
     7  N   -0.169088   0.002772   0.002154   0.006136   0.052164  -0.126826
     8  H    0.007988  -0.000216  -0.000244  -0.000149  -0.010629   0.008097
     9  C    0.002162  -0.000052  -0.001601   0.000177  -0.003403   0.002022
    10  H    0.003387  -0.001566   0.003268   0.000003  -0.006115   0.000078
    11  C   -0.000253   0.000196   0.000039  -0.000005   0.002026  -0.000095
    12  H   -0.000011  -0.000003  -0.000001   0.000000  -0.000156   0.000000
    13  H    0.000020   0.000001  -0.000004  -0.000000  -0.000066   0.000000
    14  H    0.000009  -0.000002   0.000011  -0.000000   0.000093  -0.000009
    15  C    0.000098   0.000988   0.000057  -0.000005  -0.001061   0.000018
    16  O    0.000028  -0.000178  -0.000006  -0.000000   0.000031   0.000000
    17  N   -0.001460   0.003944   0.000062   0.000008   0.001255  -0.000006
    18  H   -0.000357  -0.000243   0.000017   0.000006   0.002252  -0.000335
    19  C   -0.000003  -0.000057  -0.000000  -0.000000  -0.000065  -0.000000
    20  H   -0.000001  -0.000001  -0.000000   0.000000  -0.000002   0.000000
    21  H   -0.000001   0.000006   0.000000   0.000000   0.000005  -0.000000
    22  H    0.000025  -0.000064  -0.000000  -0.000000  -0.000012   0.000000
               7          8          9         10         11         12
     1  C   -0.169088   0.007988   0.002162   0.003387  -0.000253  -0.000011
     2  H    0.002772  -0.000216  -0.000052  -0.001566   0.000196  -0.000003
     3  H    0.002154  -0.000244  -0.001601   0.003268   0.000039  -0.000001
     4  H    0.006136  -0.000149   0.000177   0.000003  -0.000005   0.000000
     5  C    0.052164  -0.010629  -0.003403  -0.006115   0.002026  -0.000156
     6  O   -0.126826   0.008097   0.002022   0.000078  -0.000095   0.000000
     7  N    7.639583   0.289592   0.068968  -0.049490  -0.049337  -0.005510
     8  H    0.289592   0.402517  -0.026715   0.003486  -0.004345   0.004293
     9  C    0.068968  -0.026715   5.436892   0.381042   0.324798  -0.038409
    10  H   -0.049490   0.003486   0.381042   0.560813  -0.029787   0.005218
    11  C   -0.049337  -0.004345   0.324798  -0.029787   5.113286   0.371885
    12  H   -0.005510   0.004293  -0.038409   0.005218   0.371885   0.585988
    13  H    0.004612   0.000075  -0.037717  -0.001903   0.369702  -0.025374
    14  H    0.001207   0.000292  -0.035939  -0.006530   0.371180  -0.034106
    15  C   -0.043279  -0.000126   0.199659  -0.048849  -0.050730  -0.005817
    16  O    0.003238  -0.000030  -0.099254   0.003510  -0.001774   0.000081
    17  N   -0.000731   0.000183  -0.156426   0.003463  -0.000055   0.001705
    18  H    0.018787   0.000325  -0.006079   0.000577   0.000464   0.000042
    19  C    0.000057  -0.000007   0.005242  -0.000129  -0.000127  -0.000039
    20  H   -0.000094   0.000001   0.001296  -0.000026  -0.000014  -0.000006
    21  H   -0.000000  -0.000002  -0.000171  -0.000005   0.000028  -0.000006
    22  H    0.000006   0.000001  -0.000124   0.000020  -0.000004   0.000001
              13         14         15         16         17         18
     1  C    0.000020   0.000009   0.000098   0.000028  -0.001460  -0.000357
     2  H    0.000001  -0.000002   0.000988  -0.000178   0.003944  -0.000243
     3  H   -0.000004   0.000011   0.000057  -0.000006   0.000062   0.000017
     4  H   -0.000000  -0.000000  -0.000005  -0.000000   0.000008   0.000006
     5  C   -0.000066   0.000093  -0.001061   0.000031   0.001255   0.002252
     6  O    0.000000  -0.000009   0.000018   0.000000  -0.000006  -0.000335
     7  N    0.004612   0.001207  -0.043279   0.003238  -0.000731   0.018787
     8  H    0.000075   0.000292  -0.000126  -0.000030   0.000183   0.000325
     9  C   -0.037717  -0.035939   0.199659  -0.099254  -0.156426  -0.006079
    10  H   -0.001903  -0.006530  -0.048849   0.003510   0.003463   0.000577
    11  C    0.369702   0.371180  -0.050730  -0.001774  -0.000055   0.000464
    12  H   -0.025374  -0.034106  -0.005817   0.000081   0.001705   0.000042
    13  H    0.513454  -0.024072   0.002513   0.009400   0.000698  -0.000061
    14  H   -0.024072   0.570761   0.005144   0.000064  -0.000143  -0.000017
    15  C    0.002513   0.005144   4.787026   0.557096   0.102558  -0.012736
    16  O    0.009400   0.000064   0.557096   8.119415  -0.121920   0.002867
    17  N    0.000698  -0.000143   0.102558  -0.121920   7.425021   0.298094
    18  H   -0.000061  -0.000017  -0.012736   0.002867   0.298094   0.388525
    19  C    0.000004   0.000003  -0.036717  -0.008490   0.212616  -0.027332
    20  H   -0.000008   0.000000   0.003607   0.018844  -0.045834   0.003032
    21  H    0.000000  -0.000000   0.002028   0.000486  -0.046083  -0.001142
    22  H   -0.000000  -0.000000   0.002050   0.000423  -0.044845  -0.000872
              19         20         21         22
     1  C   -0.000003  -0.000001  -0.000001   0.000025
     2  H   -0.000057  -0.000001   0.000006  -0.000064
     3  H   -0.000000  -0.000000   0.000000  -0.000000
     4  H   -0.000000   0.000000   0.000000  -0.000000
     5  C   -0.000065  -0.000002   0.000005  -0.000012
     6  O   -0.000000   0.000000  -0.000000   0.000000
     7  N    0.000057  -0.000094  -0.000000   0.000006
     8  H   -0.000007   0.000001  -0.000002   0.000001
     9  C    0.005242   0.001296  -0.000171  -0.000124
    10  H   -0.000129  -0.000026  -0.000005   0.000020
    11  C   -0.000127  -0.000014   0.000028  -0.000004
    12  H   -0.000039  -0.000006  -0.000006   0.000001
    13  H    0.000004  -0.000008   0.000000  -0.000000
    14  H    0.000003   0.000000  -0.000000  -0.000000
    15  C   -0.036717   0.003607   0.002028   0.002050
    16  O   -0.008490   0.018844   0.000486   0.000423
    17  N    0.212616  -0.045834  -0.046083  -0.044845
    18  H   -0.027332   0.003032  -0.001142  -0.000872
    19  C    4.962433   0.378603   0.381813   0.380939
    20  H    0.378603   0.490530  -0.025903  -0.025217
    21  H    0.381813  -0.025903   0.572363  -0.039141
    22  H    0.380939  -0.025217  -0.039141   0.571219
 Mulliken charges:
               1
     1  C   -0.481656
     2  H    0.165234
     3  H    0.170589
     4  H    0.184049
     5  C    0.488806
     6  O   -0.453304
     7  N   -0.644919
     8  H    0.325613
     9  C   -0.016369
    10  H    0.179535
    11  C   -0.417078
    12  H    0.140226
    13  H    0.188725
    14  H    0.152055
    15  C    0.536476
    16  O   -0.483832
    17  N   -0.632105
    18  H    0.334185
    19  C   -0.248744
    20  H    0.201192
    21  H    0.155724
    22  H    0.155597
 Sum of Mulliken charges =  -0.00000
 Mulliken charges with hydrogens summed into heavy atoms:
               1
     1  C    0.038217
     5  C    0.488806
     6  O   -0.453304
     7  N   -0.319306
     9  C    0.163167
    11  C    0.063928
    15  C    0.536476
    16  O   -0.483832
    17  N   -0.297920
    19  C    0.263768
 Electronic spatial extent (au):  <R**2>=           1749.7454
 Charge=             -0.0000 electrons
 Dipole moment (field-independent basis, Debye):
    X=              0.7704    Y=             -0.1149    Z=              0.5496  Tot=              0.9533
 Quadrupole moment (field-independent basis, Debye-Ang):
   XX=            -78.9334   YY=            -55.6256   ZZ=            -59.2330
   XY=             -9.5297   XZ=             11.1713   YZ=              2.6048
 Traceless Quadrupole moment (field-independent basis, Debye-Ang):
   XX=            -14.3361   YY=              8.9718   ZZ=              5.3643
   XY=             -9.5297   XZ=             11.1713   YZ=              2.6048
 Octapole moment (field-independent basis, Debye-Ang**2):
  XXX=             31.9332  YYY=             -2.5799  ZZZ=              5.9089  XYY=              7.2209
  XXY=             -3.3117  XXZ=             -7.4403  XZZ=             -5.1398  YZZ=              0.0312
  YYZ=              2.1218  XYZ=             -4.4521
 Hexadecapole moment (field-independent basis, Debye-Ang**3):
 XXXX=          -1474.6049 YYYY=           -631.4800 ZZZZ=           -267.4561 XXXY=            -78.1026
 XXXZ=             81.1638 YYYX=             -5.9868 YYYZ=             -5.2723 ZZZX=             -2.0532
 ZZZY=             -0.6191 XXYY=           -318.5996 XXZZ=           -275.7587 YYZZ=           -152.3368
 XXYZ=             22.5675 YYXZ=              6.0754 ZZXY=             -8.0668
 N-N= 5.537138641347D+02 E-N=-2.264026814370D+03  KE= 4.928763464998D+02
 No NMR shielding tensors so no spin-rotation constants.
 Leave Link  601 at Sat Jul 18 17:12:39 2020, MaxMem=   104857600 cpu:               0.1 elap:               0.1
 (Enter /opt/g16/g16/l9999.exe)
 1\1\GINC-VEDA\FOpt\RB3LYP\6-31G\C6H12N2O2\HIRANO\18-Jul-2020\0\\#p opt
  rb3lyp/6-31g geom=connectivity\\ACE+ALA+NME\\0,1\C,-2.0749319406,-0.0
 873771657,1.6393803801\H,-1.3949088376,-0.9022280062,1.3687388533\H,-2
 .6901284243,0.1408853262,0.76033466\H,-2.7305898858,-0.416377019,2.445
 6205244\C,-1.3274968383,1.1400383724,2.1169346295\O,-1.5836289152,1.69
 63687287,3.2058825021\N,-0.3256057039,1.6339027962,1.2990878003\H,0.08
 66136858,2.4989139407,1.6308423031\C,0.0462169546,1.1780960565,-0.0449
 529444\H,-0.8281340613,0.7169966169,-0.5165919802\C,0.4858339635,2.371
 7197374,-0.9124216374\H,1.337314506,2.891414767,-0.4558387022\H,0.7959
 507878,2.0099562842,-1.8949243053\H,-0.3371457817,3.0830271238,-1.0306
 061968\C,1.144686166,0.0935011842,-0.0660859523\O,1.493387499,-0.40952
 50002,-1.1594921937\N,1.6841713316,-0.2500130613,1.135253737\H,1.34094
 819,0.223451741,1.9588883899\C,2.7415413398,-1.2495376599,1.2613884693
 \H,2.9411521501,-1.6459655506,0.2643608176\H,3.6601552371,-0.804212921
 4,1.6595723587\H,2.4311900574,-2.0682035307,1.9195077873\\Version=ES64
 L-G16RevA.03\State=1-A\HF=-495.7009033\RMSD=6.529e-09\RMSF=2.076e-06\D
 ipole=0.3749594,0.0030218,-0.0082501\Quadrupole=3.6832692,4.4425797,-8
 .1258489,3.0204021,9.5069119,-7.795058\PG=C01 [X(C6H12N2O2)]\\@


 You don't have to suffer to be a poet.
 Adolescence is enough suffering for anyone.
                             -- John Ciardi
 Job cpu time:       0 days  0 hours 34 minutes 12.0 seconds.
 Elapsed time:       0 days  0 hours 34 minutes 10.1 seconds.
 File lengths (MBytes):  RWF=     10 Int=      0 D2E=      0 Chk=      2 Scr=      1
 Normal termination of Gaussian 16 at Sat Jul 18 17:12:39 2020.
